LAMMPS (10 Feb 2015)
# 3d Lennard-Jones melt

variable	x index 1
variable	y index 1
variable	z index 1

variable	xx equal 7*$x
variable	xx equal 7*1
variable	yy equal 7*$y
variable	yy equal 7*1
variable	zz equal 7*$z
variable	zz equal 7*1

units		lj
atom_style	atomic

lattice		fcc 0.8442
Lattice spacing in x,y,z = 1.6796 1.6796 1.6796
region		box block 0 ${xx} 0 ${yy} 0 ${zz}
region		box block 0 7 0 ${yy} 0 ${zz}
region		box block 0 7 0 7 0 ${zz}
region		box block 0 7 0 7 0 7
create_box	1 box
Created orthogonal box = (0 0 0) to (11.7572 11.7572 11.7572)
  1 by 1 by 2 MPI processor grid
create_atoms	1 box
Created 1372 atoms
mass		1 1.0

velocity	all create 1.44 87287 loop geom

pair_style	lj/cut 2.5
pair_coeff	1 1 1.0 1.0 2.5

neighbor	0.3 bin
neigh_modify	delay 0 every 20 check no
timestep 0.005
thermo 100
fix		1 all nvt temp 1 1 1
thermo 100
run 1000
Neighbor list info ...
  1 neighbor list requests
  update every 20 steps, delay 0 steps, check no
  master list distance cutoff = 2.8
Memory usage per processor = 2.09663 Mbytes
Step Temp E_pair E_mol TotEng Press 
       0         1.44   -6.7733681            0   -4.6149424   -5.0205553 
     100   0.75957496   -5.7280087            0   -4.5894767   0.32917139 
     200   0.79249787   -5.7065269            0   -4.5186465   0.46761081 
     300   0.83417709   -5.6822121            0   -4.4318584   0.68862826 
     400   0.83448901   -5.5876062            0    -4.336785    1.1854433 
     500   0.86212021   -5.5287583            0   -4.2365205    1.5311985 
     600   0.91322335   -5.5035031            0   -4.1346665     1.687639 
     700   0.90974203    -5.401371            0   -4.0377526    2.1842979 
     800   0.95926131   -5.3834358            0   -3.9455926    2.3113838 
     900    1.0018192   -5.3656073            0   -3.8639737    2.4272787 
    1000    1.0394798    -5.359058            0   -3.8009748    2.4782618 
Loop time of 0.769449 on 2 procs for 1000 steps with 1372 atoms

Pair  time (%) = 0.585617 (76.1087)
Neigh time (%) = 0.0802312 (10.4271)
Comm  time (%) = 0.0801203 (10.4127)
Outpt time (%) = 0.000291467 (0.0378799)
Other time (%) = 0.0231887 (3.01368)

Nlocal:    686 ave 691 max 681 min
Histogram: 1 0 0 0 0 0 0 0 0 1
Nghost:    2246 ave 2266 max 2226 min
Histogram: 1 0 0 0 0 0 0 0 0 1
Neighs:    25855 ave 26027 max 25683 min
Histogram: 1 0 0 0 0 0 0 0 0 1

Total # of neighbors = 51710
Ave neighs/atom = 37.6895
Neighbor list builds = 50
Dangerous builds = 0

dump 1 all atom  10000 mini-dump0.atom

label	    loop

variable a loop 100
run		100
Memory usage per processor = 2.09663 Mbytes
Step Temp E_pair E_mol TotEng Press 
    1000    1.0394798    -5.359058            0   -3.8009748    2.4782618 
    1100    1.0490588   -5.3331601            0   -3.7607187    2.6200114 
Loop time of 0.0760405 on 2 procs for 100 steps with 1372 atoms

Pair  time (%) = 0.0592122 (77.8693)
Neigh time (%) = 0.00730193 (9.60268)
Comm  time (%) = 0.00685799 (9.01887)
Outpt time (%) = 2.36034e-05 (0.0310406)
Other time (%) = 0.00264478 (3.47812)

Nlocal:    686 ave 690 max 682 min
Histogram: 1 0 0 0 0 0 0 0 0 1
Nghost:    2252 ave 2256 max 2248 min
Histogram: 1 0 0 0 0 0 0 0 0 1
Neighs:    25801.5 ave 25970 max 25633 min
Histogram: 1 0 0 0 0 0 0 0 0 1

Total # of neighbors = 51603
Ave neighs/atom = 37.6115
Neighbor list builds = 5
Dangerous builds = 0
minimize 1.0e-4 1.0e-6 100 1000
WARNING: Resetting reneighboring criteria during minimization (../min.cpp:168)
Neighbor list info ...
  1 neighbor list requests
  update every 1 steps, delay 0 steps, check yes
  master list distance cutoff = 2.8
Memory usage per processor = 3.72163 Mbytes
Step Temp E_pair E_mol TotEng Press 
    1100    1.0490588   -5.3331601            0   -3.7607187    2.6200114 
    1200    1.0490588   -6.6958282            0   -5.1233868   -2.0925551 
Loop time of 0.206276 on 2 procs for 100 steps with 1372 atoms

Minimization stats:
  Stopping criterion = max iterations
  Energy initial, next-to-last, final = 
        -5.33316006339     -6.69313279776     -6.69582818984
  Force two-norm initial, final = 1184.96 31.1815
  Force max component initial, final = 153.836 4.99386
  Final line search alpha, max atom move = 0.00659513 0.0329351
  Iterations, force evaluations = 100 193

Pair  time (%) = 0.135733 (65.8017)
Neigh time (%) = 0.0468862 (22.7298)
Comm  time (%) = 0.018114 (8.78142)
Outpt time (%) = 2.45571e-05 (0.011905)
Other time (%) = 0.0055182 (2.67515)

Nlocal:    686 ave 704 max 668 min
Histogram: 1 0 0 0 0 0 0 0 0 1
Nghost:    2274 ave 2287 max 2261 min
Histogram: 1 0 0 0 0 0 0 0 0 1
Neighs:    25842 ave 26373 max 25311 min
Histogram: 1 0 0 0 0 0 0 0 0 1

Total # of neighbors = 51684
Ave neighs/atom = 37.6706
Neighbor list builds = 31
Dangerous builds = 0
next  a
variable myt equal ${a}*10000
variable myt equal 2*10000
reset_timestep ${myt}
reset_timestep 20000
velocity all scale 1
run 8000
Neighbor list info ...
  1 neighbor list requests
  update every 20 steps, delay 0 steps, check no
  master list distance cutoff = 2.8
Memory usage per processor = 3.12348 Mbytes
Step Temp E_pair E_mol TotEng Press 
   20000            1   -6.6958282            0   -5.1969215   -2.1339404 
   20100   0.56202437   -5.9669321            0     -5.12451 0.0049892881 
   20200   0.57481785   -5.8808841            0   -5.0192857 0.0079456222 
   20300   0.59741126   -5.7955448            0   -4.9000811   0.26097871 
   20400    0.6369158   -5.7277176            0   -4.7730402   0.56317489 
   20500    0.6969528   -5.6814262            0    -4.636759   0.70533052 
   20600   0.74664492   -5.6127634            0   -4.4936124    1.1917666 
   20700   0.78948046   -5.5300095            0    -4.346652     1.510647 
   20800   0.88077982   -5.5198518            0    -4.199645    1.5587948 
   20900   0.89938346   -5.4086463            0   -4.0605544    2.1183139 
   21000   0.96161886   -5.3718589            0   -3.9304819    2.3660015 
   21100    1.0148889   -5.3438846            0   -3.8226608    2.4938596 
   21200    1.0573375   -5.3302041            0   -3.7453538    2.6583574 
   21300     1.059486   -5.2918794            0   -3.7038087    2.8112449 
   21400    1.0432773   -5.2692562            0   -3.7054808    2.9991765 
   21500    1.0717933   -5.3533355            0   -3.7468173    2.5881852 
   21600    1.0205806   -5.3444047            0   -3.8146497    2.5696637 
   21700   0.99033757   -5.3649038            0   -3.8804802    2.4740623 
   21800   0.93672377   -5.3326842            0   -3.9286226    2.5935272 
   21900   0.96715424   -5.3987033            0   -3.9490294    2.3058979 
   22000   0.96802638   -5.3848537            0   -3.9338725    2.2791713 
   22100   0.97018349   -5.3483934            0   -3.8941789    2.5132277 
   22200   0.99461729   -5.3325204            0   -3.8416818    2.6721686 
   22300    1.0312366   -5.3361915            0   -3.7904641    2.6431517 
   22400    1.0515926   -5.3343956            0   -3.7581565    2.6671938 
   22500    1.0303083   -5.2968641            0    -3.752528    2.8375163 
   22600    1.0168615   -5.3007826            0   -3.7766021    2.8483309 
   22700    1.0057398   -5.3205084            0   -3.8129982    2.6480036 
   22800   0.97686183   -5.3155045            0   -3.8512797    2.6862992 
   22900   0.99060183   -5.3663486            0   -3.8815289    2.4399899 
   23000   0.97769686   -5.3666289            0   -3.9011525    2.4654429 
   23100   0.98107237   -5.3791521            0   -3.9086162    2.3512928 
   23200   0.97344607   -5.3599864            0   -3.9008816    2.4363495 
   23300   0.99089323   -5.3651965            0     -3.87994    2.4167223 
   23400    0.9824802   -5.3215445            0   -3.8488984    2.6037463 
   23500   0.99750437   -5.3074146            0   -3.8122486    2.7450083 
   23600    1.0066276   -5.2897929            0    -3.780952    2.8395908 
   23700    1.0327449   -5.3143624            0   -3.7663741    2.7043184 
   23800    1.0218179   -5.3048446            0   -3.7732349    2.7556966 
   23900    1.0125458   -5.3227708            0   -3.8050592    2.6268707 
   24000    1.0212974   -5.3750425            0    -3.844213    2.3855607 
   24100   0.99706491   -5.3719063            0    -3.877399    2.4524492 
   24200   0.96667055   -5.3506863            0   -3.9017373     2.472355 
   24300   0.97078137   -5.3586765            0   -3.9035658    2.4819004 
   24400   0.96555555   -5.3288256            0   -3.8815479    2.6635798 
   24500    1.0133687   -5.3694913            0   -3.8505462    2.4265161 
   24600    1.0378689   -5.3747423            0   -3.8190736    2.4409885 
   24700   0.98695117   -5.2799017            0    -3.800554     2.868953 
   24800    1.0226967    -5.323043            0    -3.790116    2.7015935 
   24900   0.99429839   -5.2862816            0   -3.7959211    2.8417457 
   25000     1.039787   -5.3697018            0    -3.811158    2.4680387 
   25100    1.0077616   -5.3486342            0   -3.8380935    2.5339401 
   25200   0.99153226   -5.3504748            0   -3.8642605    2.4654769 
   25300   0.97490001   -5.3429145            0   -3.8816304    2.5706893 
   25400    0.9824336   -5.3650793            0    -3.892503    2.4524054 
   25500    1.0034411    -5.396159            0   -3.8920944    2.2683771 
   25600   0.97767264   -5.3465451            0    -3.881105    2.5305964 
   25700   0.99319723   -5.3500188            0   -3.8613088    2.5269138 
   25800    0.9969309   -5.3336114            0    -3.839305    2.6140264 
   25900    1.0275571   -5.3572127            0   -3.8170005    2.5500163 
   26000    1.0039264   -5.3109412            0   -3.8061492    2.7580274 
   26100    1.0422507   -5.3657514            0   -3.8035148    2.4891227 
   26200    1.0402007   -5.3720479            0   -3.8128841    2.4648631 
   26300   0.97672518    -5.295428            0   -3.8314081    2.8036975 
   26400   0.98034879    -5.318223            0   -3.8487716    2.6458948 
   26500   0.99087454   -5.3428307            0   -3.8576022    2.5666126 
   26600   0.99932873   -5.3554981            0   -3.8575975    2.5076323 
   26700    1.0051579   -5.3607114            0   -3.8540735    2.4842432 
   26800   0.98939433   -5.3329172            0   -3.8499074    2.6131517 
   26900    1.0080252   -5.3547628            0   -3.8438271    2.4862587 
   27000   0.97974807   -5.3031985            0   -3.8346475    2.7405547 
   27100   0.99952188   -5.3197742            0   -3.8215841    2.7103263 
   27200   0.99072065   -5.2901948            0    -3.805197    2.7526402 
   27300    1.0182837   -5.3246978            0   -3.7983856    2.6469349 
   27400    1.0099786   -5.3156033            0   -3.8017396    2.7274855 
   27500    1.0083281   -5.3256765            0   -3.8142868     2.694348 
   27600   0.99035631   -5.3188304            0   -3.8343787    2.6836156 
   27700   0.98271617   -5.3274079            0   -3.8544081    2.6364336 
   27800     1.006202   -5.3811291            0   -3.8729262    2.3678852 
   27900   0.98920238   -5.3666092            0   -3.8838871     2.482235 
   28000   0.99250248   -5.3645969            0   -3.8769283    2.4497036 
Loop time of 5.85992 on 2 procs for 8000 steps with 1372 atoms

Pair  time (%) = 4.48464 (76.5307)
Neigh time (%) = 0.622959 (10.6308)
Comm  time (%) = 0.580562 (9.90734)
Outpt time (%) = 0.00242329 (0.0413536)
Other time (%) = 0.169337 (2.88975)

Nlocal:    686 ave 690 max 682 min
Histogram: 1 0 0 0 0 0 0 0 0 1
Nghost:    2205.5 ave 2211 max 2200 min
Histogram: 1 0 0 0 0 0 0 0 0 1
Neighs:    25857 ave 26097 max 25617 min
Histogram: 1 0 0 0 0 0 0 0 0 1

Total # of neighbors = 51714
Ave neighs/atom = 37.6924
Neighbor list builds = 400
Dangerous builds = 0

jump in-minimise.lj loop

variable a loop 100
run		100
Memory usage per processor = 3.12348 Mbytes
Step Temp E_pair E_mol TotEng Press 
   28000   0.99250248   -5.3645969            0   -3.8769283    2.4497036 
   28100   0.97060621   -5.3131397            0   -3.8582916    2.7302506 
Loop time of 0.071115 on 2 procs for 100 steps with 1372 atoms

Pair  time (%) = 0.0551814 (77.5946)
Neigh time (%) = 0.00778627 (10.9488)
Comm  time (%) = 0.00585175 (8.22857)
Outpt time (%) = 3.20673e-05 (0.0450922)
Other time (%) = 0.00226355 (3.18294)

Nlocal:    686 ave 688 max 684 min
Histogram: 1 0 0 0 0 0 0 0 0 1
Nghost:    2217 ave 2217 max 2217 min
Histogram: 2 0 0 0 0 0 0 0 0 0
Neighs:    25914 ave 26051 max 25777 min
Histogram: 1 0 0 0 0 0 0 0 0 1

Total # of neighbors = 51828
Ave neighs/atom = 37.7755
Neighbor list builds = 5
Dangerous builds = 0
minimize 1.0e-4 1.0e-6 100 1000
WARNING: Resetting reneighboring criteria during minimization (../min.cpp:168)
Neighbor list info ...
  1 neighbor list requests
  update every 1 steps, delay 0 steps, check yes
  master list distance cutoff = 2.8
Memory usage per processor = 4.74848 Mbytes
Step Temp E_pair E_mol TotEng Press 
   28100   0.97060621   -5.3131397            0   -3.8582916    2.7302506 
   28200   0.97060621   -6.6680525            0   -5.2132044   -2.4006022 
Loop time of 0.200607 on 2 procs for 100 steps with 1372 atoms

Minimization stats:
  Stopping criterion = max iterations
  Energy initial, next-to-last, final = 
        -5.31313971608     -6.66703542285     -6.66805250455
  Force two-norm initial, final = 1194.25 19.0861
  Force max component initial, final = 98.3464 6.95842
  Final line search alpha, max atom move = 0.0246885 0.171793
  Iterations, force evaluations = 100 192

Pair  time (%) = 0.129848 (64.7274)
Neigh time (%) = 0.0480894 (23.9719)
Comm  time (%) = 0.0176749 (8.81072)
Outpt time (%) = 2.61068e-05 (0.0130139)
Other time (%) = 0.004969 (2.47698)

Nlocal:    686 ave 706 max 666 min
Histogram: 1 0 0 0 0 0 0 0 0 1
Nghost:    2207.5 ave 2229 max 2186 min
Histogram: 1 0 0 0 0 0 0 0 0 1
Neighs:    25585 ave 27091 max 24079 min
Histogram: 1 0 0 0 0 0 0 0 0 1

Total # of neighbors = 51170
Ave neighs/atom = 37.2959
Neighbor list builds = 34
Dangerous builds = 0
next  a
variable myt equal ${a}*10000
variable myt equal 3*10000
reset_timestep ${myt}
reset_timestep 30000
velocity all scale 1
run 8000
Neighbor list info ...
  1 neighbor list requests
  update every 20 steps, delay 0 steps, check no
  master list distance cutoff = 2.8
Memory usage per processor = 3.12356 Mbytes
Step Temp E_pair E_mol TotEng Press 
   30000            1   -6.6680525            0   -5.1691458   -2.3758061 
   30100   0.54876049   -5.9300257            0   -5.1074849  -0.16556431 
   30200   0.54700961   -5.8419665            0   -5.0220501 -0.012760107 
   30300   0.59339833   -5.8050107            0   -4.9155619   0.12746043 
   30400   0.63861114   -5.7542452            0   -4.7970266   0.36669781 
   30500   0.67563007   -5.6807734            0   -4.6680669   0.72781092 
   30600   0.75405978   -5.6623877            0   -4.5321224    0.7812566 
   30700   0.78946047   -5.5736516            0    -4.390324    1.3262248 
   30800   0.86846499   -5.5501275            0   -4.2483795     1.458727 
   30900   0.91050543   -5.4743005            0   -4.1095378    1.8792383 
   31000   0.94733957   -5.3999166            0    -3.979943    2.2050301 
   31100   0.99271355   -5.3504899            0   -3.8625049    2.5089514 
   31200    1.0465111   -5.3400271            0   -3.7714045    2.6510819 
   31300    1.0515056   -5.2912387            0   -3.7151299    2.8513481 
   31400    1.0560225   -5.2786695            0   -3.6957903    2.9134641 
   31500    1.0610254   -5.3102065            0   -3.7198284    2.7447244 
   31600   0.98013314   -5.2469925            0   -3.7778643    2.9945977 
   31700   0.98597223   -5.3213021            0   -3.8434217    2.6241981 
   31800   0.97573505   -5.3579026            0   -3.8953668    2.4778748 
   31900   0.98141607   -5.3970329            0   -3.9259817    2.3509638 
   32000   0.96061896   -5.3700124            0   -3.9301342    2.4524566 
   32100   0.96476291   -5.3587259            0   -3.9126363    2.4890905 
   32200   0.99502171   -5.3664873            0   -3.8750426    2.4026556 
   32300    1.0152802   -5.3567332            0   -3.8349229    2.5129249 
   32400    1.0276388   -5.3385469            0   -3.7982123    2.5918979 
   32500     1.032894   -5.3316871            0   -3.7834754    2.6185614 
   32600    1.0524311   -5.3601035            0   -3.7826075    2.4977521 
   32700    1.0009816   -5.3009289            0   -3.8005509    2.7482191 
   32800   0.99584898   -5.3178765            0   -3.8251918    2.6677659 
   32900   0.96664412   -5.2976382            0   -3.8487288    2.7600293 
   33000   0.96356516   -5.3113293            0    -3.867035    2.6389235 
   33100    1.0110975   -5.3916459            0    -3.876105    2.3093164 
   33200   0.99009468   -5.3630997            0   -3.8790402    2.4720935 
   33300   0.98127739    -5.337481            0   -3.8666377    2.5873291 
   33400    1.0200168   -5.3740389            0   -3.8451288    2.4092832 
   33500    1.0118502   -5.3428932            0   -3.8262241    2.5579192 
   33600    1.0181674   -5.3344116            0   -3.8082736    2.6748114 
   33700    1.0252383   -5.3371305            0    -3.800394    2.6447741 
   33800    1.0220878   -5.3386889            0   -3.8066747    2.6132548 
   33900    1.0207025   -5.3481974            0   -3.8182596    2.5551321 
   34000    1.0062595   -5.3478627            0   -3.8395736    2.5345136 
   34100    1.0013586   -5.3627788            0   -3.8618357    2.4614104 
   34200   0.95454187   -5.3148122            0    -3.884043    2.7188626 
   34300   0.96856027   -5.3429341            0   -3.8911526    2.5185329 
   34400    1.0058319   -5.3936579            0   -3.8860097    2.3622974 
   34500   0.97496728   -5.3258772            0   -3.8644922    2.6515279 
   34600   0.98979092   -5.3196889            0   -3.8360846    2.5745666 
   34700     1.029137    -5.354055            0   -3.8114746    2.5148984 
   34800    1.0228297   -5.3284294            0   -3.7953032    2.6291552 
   34900    0.9952224   -5.2858679            0   -3.7941224    2.8158121 
   35000    1.0228368   -5.3436582            0   -3.8105213    2.5761101 
   35100    1.0095586   -5.3543827            0   -3.8411485    2.4854438 
   35200     0.970402   -5.3263994            0   -3.8718573    2.6497875 
   35300   0.99318755   -5.3794339            0   -3.8907385     2.422171 
   35400   0.97632548   -5.3624775            0   -3.8990567    2.4998518 
   35500   0.99907919   -5.3887898            0   -3.8912633    2.3523213 
   35600   0.99212032   -5.3586105            0   -3.8715147    2.4265342 
   35700    1.0030343   -5.3457191            0   -3.8422643    2.4961865 
   35800    1.0076597   -5.3299011            0   -3.8195133    2.6287519 
   35900    1.0070569   -5.3184788            0   -3.8089945    2.6845839 
   36000    1.0039236   -5.3166703            0   -3.8118824    2.7449755 
   36100    1.0370697   -5.3793559            0   -3.8248851    2.3883064 
   36200    1.0154581   -5.3683784            0   -3.8463015    2.4835117 
   36300   0.97895725   -5.3358038            0   -3.8684382    2.5978494 
   36400   0.97815283   -5.3483273            0   -3.8821675    2.4843172 
   36500   0.98092449   -5.3482379            0   -3.8779236    2.5446604 
   36600    1.0037188   -5.3625846            0   -3.8581038    2.4585238 
   36700   0.98661316   -5.3078323            0   -3.8289912    2.7643941 
   36800     1.038761   -5.3612568            0   -3.8042509     2.462655 
   36900    1.0026085   -5.2958873            0   -3.7930707    2.7559046 
   37000    1.0136639    -5.317181            0   -3.7977934     2.715503 
   37100    1.0082582   -5.3240928            0   -3.8128078    2.6856695 
   37200   0.98941687   -5.3185795            0    -3.835536    2.7523706 
   37300   0.98807284   -5.3395478            0   -3.8585188    2.5595532 
   37400    1.0057583   -5.3830119            0    -3.875474    2.3204308 
   37500   0.98682901   -5.3644684            0   -3.8853037    2.4339228 
   37600   0.97574361   -5.3476737            0   -3.8851251    2.5277076 
   37700    0.9893765   -5.3475635            0   -3.8645804    2.5051702 
   37800   0.99238655   -5.3265507            0   -3.8390558    2.6069192 
   37900    1.0295684   -5.3502396            0   -3.8070126    2.5109845 
   38000    1.0293613   -5.3299968            0   -3.7870802    2.6464123 
Loop time of 6.46679 on 2 procs for 8000 steps with 1372 atoms

Pair  time (%) = 4.84936 (74.9888)
Neigh time (%) = 0.664841 (10.2809)
Comm  time (%) = 0.745739 (11.5318)
Outpt time (%) = 0.00242996 (0.037576)
Other time (%) = 0.204413 (3.16097)

Nlocal:    686 ave 690 max 682 min
Histogram: 1 0 0 0 0 0 0 0 0 1
Nghost:    2241.5 ave 2246 max 2237 min
Histogram: 1 0 0 0 0 0 0 0 0 1
Neighs:    25798 ave 26103 max 25493 min
Histogram: 1 0 0 0 0 0 0 0 0 1

Total # of neighbors = 51596
Ave neighs/atom = 37.6064
Neighbor list builds = 400
Dangerous builds = 0

jump in-minimise.lj loop

variable a loop 100
run		100
Memory usage per processor = 3.12356 Mbytes
Step Temp E_pair E_mol TotEng Press 
   38000    1.0293613   -5.3299968            0   -3.7870802    2.6464123 
   38100    1.0386624   -5.3413134            0   -3.7844553    2.6218779 
Loop time of 0.0967 on 2 procs for 100 steps with 1372 atoms

Pair  time (%) = 0.0684286 (70.7639)
Neigh time (%) = 0.00864792 (8.94304)
Comm  time (%) = 0.0155429 (16.0733)
Outpt time (%) = 2.89679e-05 (0.0299564)
Other time (%) = 0.00405157 (4.18983)

Nlocal:    686 ave 690 max 682 min
Histogram: 1 0 0 0 0 0 0 0 0 1
Nghost:    2222 ave 2223 max 2221 min
Histogram: 1 0 0 0 0 0 0 0 0 1
Neighs:    25831.5 ave 25966 max 25697 min
Histogram: 1 0 0 0 0 0 0 0 0 1

Total # of neighbors = 51663
Ave neighs/atom = 37.6552
Neighbor list builds = 5
Dangerous builds = 0
minimize 1.0e-4 1.0e-6 100 1000
WARNING: Resetting reneighboring criteria during minimization (../min.cpp:168)
Neighbor list info ...
  1 neighbor list requests
  update every 1 steps, delay 0 steps, check yes
  master list distance cutoff = 2.8
Memory usage per processor = 4.74856 Mbytes
Step Temp E_pair E_mol TotEng Press 
   38100    1.0386624   -5.3413134            0   -3.7844553    2.6218779 
   38200    1.0386624   -6.6761359            0   -5.1192779   -2.2547128 
Loop time of 0.22498 on 2 procs for 100 steps with 1372 atoms

Minimization stats:
  Stopping criterion = max iterations
  Energy initial, next-to-last, final = 
        -5.34131335631     -6.67468010784     -6.67613594661
  Force two-norm initial, final = 1173.87 24.881
  Force max component initial, final = 118.477 7.29691
  Final line search alpha, max atom move = 0.0114177 0.0833139
  Iterations, force evaluations = 100 192

Pair  time (%) = 0.145551 (64.6951)
Neigh time (%) = 0.05048 (22.4376)
Comm  time (%) = 0.0218765 (9.72374)
Outpt time (%) = 2.53916e-05 (0.0112862)
Other time (%) = 0.00704706 (3.13231)

Nlocal:    686 ave 698 max 674 min
Histogram: 1 0 0 0 0 0 0 0 0 1
Nghost:    2236 ave 2252 max 2220 min
Histogram: 1 0 0 0 0 0 0 0 0 1
Neighs:    25646 ave 26219 max 25073 min
Histogram: 1 0 0 0 0 0 0 0 0 1

Total # of neighbors = 51292
Ave neighs/atom = 37.3848
Neighbor list builds = 33
Dangerous builds = 0
next  a
variable myt equal ${a}*10000
variable myt equal 4*10000
reset_timestep ${myt}
reset_timestep 40000
velocity all scale 1
run 8000
Neighbor list info ...
  1 neighbor list requests
  update every 20 steps, delay 0 steps, check no
  master list distance cutoff = 2.8
Memory usage per processor = 3.12356 Mbytes
Step Temp E_pair E_mol TotEng Press 
   40000            1   -6.6761359            0   -5.1772292   -2.2873278 
   40100   0.55141759   -5.9504489            0   -5.1239253  -0.12160857 
   40200   0.55918969   -5.8804224            0   -5.0422492 -0.023102449 
   40300   0.57270175   -5.7949918            0   -4.9365654   0.23388146 
   40400   0.64171552    -5.781463            0   -4.8195913   0.19387011 
   40500   0.68889484   -5.7233485            0   -4.6907594    0.5211632 
   40600   0.73179804   -5.6526149            0   -4.5557179   0.88837988 
   40700   0.80176231   -5.6159865            0   -4.4142196    1.0871332 
   40800   0.82025925   -5.5037582            0   -4.2742661    1.6393036 
   40900   0.90451641   -5.4885847            0    -4.132799    1.8138761 
   41000   0.93689318   -5.4053188            0   -4.0010033    2.1547366 
   41100   0.99779224   -5.3770785            0    -3.881481     2.380226 
   41200    1.0256884   -5.3201798            0   -3.7827685     2.709423 
   41300    1.0290409   -5.2613924            0   -3.7189561     2.951318 
   41400    1.0774696   -5.3132059            0   -3.6981796    2.7506488 
   41500    1.0621139   -5.3156829            0   -3.7236732    2.7494795 
   41600    1.0096128   -5.2971173            0   -3.7838019    2.7512054 
   41700   0.97349081   -5.3129528            0   -3.8537809    2.6788084 
   41800   0.96250996   -5.3499496            0    -3.907237    2.5184325 
   41900   0.94492043   -5.3558602            0   -3.9395126    2.4657428 
   42000   0.96603829   -5.3880991            0   -3.9400979    2.2815415 
   42100   0.96315401   -5.3510388            0   -3.9073608    2.5309075 
   42200   0.98858761   -5.3415423            0   -3.8597417    2.5054357 
   42300    1.0086466   -5.3233898            0   -3.8115226     2.611692 
   42400    1.0005624   -5.2776603            0   -3.7779107     2.847988 
   42500    1.0389962   -5.3178938            0   -3.7605354     2.764486 
   42600    1.0264794   -5.3048318            0   -3.7662349    2.7938948 
   42700    1.0240393   -5.3281644            0   -3.7932251    2.6444463 
   42800   0.99281782   -5.3213572            0   -3.8332159    2.6965534 
   42900   0.99588614   -5.3658356            0   -3.8730951    2.4908389 
   43000   0.99105854   -5.3867977            0   -3.9012934      2.38041 
   43100   0.96732623   -5.3628466            0   -3.9129148    2.4447746 
   43200    0.9707903   -5.3640156            0   -3.9088915    2.3897337 
   43300   0.98629881    -5.361097            0   -3.8827271    2.4783392 
   43400     1.011026   -5.3590944            0   -3.8436608    2.4594591 
   43500   0.99685097   -5.2957441            0   -3.8015575     2.774189 
   43600    1.0281035   -5.3100706            0   -3.7690393    2.7124246 
   43700    1.0457752   -5.3209465            0    -3.753427     2.642067 
   43800    1.0163337   -5.2883083            0   -3.7649189    2.8590971 
   43900    1.0301466   -5.3445643            0   -3.8004707     2.592593 
   44000   0.99995814   -5.3449024            0   -3.8460584    2.5564309 
   44100   0.98054159   -5.3509787            0   -3.8812383    2.4789196 
   44200    0.9627005   -5.3478289            0   -3.9048306    2.5013962 
   44300   0.96812833   -5.3568585            0   -3.9057245    2.4490278 
   44400   0.98425616   -5.3635585            0   -3.8882503     2.452452 
   44500    0.9894203   -5.3414042            0   -3.8583555    2.4798662 
   44600   0.98048991   -5.2943071            0   -3.8246442     2.731941 
   44700    1.0122979   -5.3119475            0   -3.7946074    2.7073999 
   44800    1.0263558   -5.3187893            0   -3.7803777    2.6790988 
   44900    1.0203429   -5.3151004            0   -3.7857016    2.6902241 
   45000    1.0203225   -5.3403224            0   -3.8109542    2.5997394 
   45100    1.0314697   -5.3887676            0   -3.8426907    2.3665692 
   45200    1.0282005   -5.4136121            0   -3.8724354     2.287443 
   45300   0.99182346   -5.3859889            0    -3.899338    2.3497608 
   45400   0.99467926   -5.4048582            0   -3.9139267      2.24462 
   45500   0.98253287   -5.3914109            0   -3.9186858    2.3217259 
   45600   0.98670661   -5.3862353            0   -3.9072542    2.3465102 
   45700   0.99479119   -5.3669087            0   -3.8758095    2.4620989 
   45800    1.0122613   -5.3609413            0    -3.843656     2.508284 
   45900    1.0030046   -5.3138558            0   -3.8104455    2.7090263 
   46000     1.025745   -5.3242482            0   -3.7867522    2.6709418 
   46100    1.0253609   -5.3156488            0   -3.7787286    2.6768731 
   46200    1.0233091   -5.3194913            0   -3.7856465    2.6684236 
   46300     1.023661   -5.3459341            0   -3.8115618    2.5891449 
   46400    1.0384909   -5.4026336            0   -3.8460326    2.3469843 
   46500   0.95514364     -5.31208            0   -3.8804088    2.6881158 
   46600   0.95837318   -5.3350148            0   -3.8985028    2.5632607 
   46700   0.98873608   -5.3870028            0   -3.9049797     2.328134 
   46800   0.96901709   -5.3455692            0    -3.893103    2.4907373 
   46900    1.0051474   -5.3693883            0   -3.8627662    2.4598343 
   47000   0.99591035   -5.3243083            0   -3.8315316    2.6543025 
   47100    1.0090613   -5.3188929            0   -3.8064041    2.7095749 
   47200    1.0075628   -5.2954817            0   -3.7852391    2.8249527 
   47300    1.0355696   -5.3292314            0   -3.7770091    2.6609843 
   47400    1.0174342   -5.3146422            0   -3.7896032    2.7297442 
   47500    1.0215711   -5.3541604            0   -3.8229206    2.5028908 
   47600   0.98563655   -5.3359379            0   -3.8585606    2.6013106 
   47700   0.98762026   -5.3638655            0   -3.8835149    2.4322849 
   47800   0.97951146   -5.3642725            0   -3.8960762    2.4175959 
   47900   0.97822505    -5.357343            0   -3.8910749    2.4945225 
   48000    0.9968088   -5.3638194            0    -3.869696    2.4873773 
Loop time of 6.83376 on 2 procs for 8000 steps with 1372 atoms

Pair  time (%) = 5.07225 (74.2234)
Neigh time (%) = 0.678997 (9.93592)
Comm  time (%) = 0.837269 (12.252)
Outpt time (%) = 0.00303185 (0.0443658)
Other time (%) = 0.242209 (3.54431)

Nlocal:    686 ave 689 max 683 min
Histogram: 1 0 0 0 0 0 0 0 0 1
Nghost:    2234 ave 2235 max 2233 min
Histogram: 1 0 0 0 0 0 0 0 0 1
Neighs:    25894 ave 26010 max 25778 min
Histogram: 1 0 0 0 0 0 0 0 0 1

Total # of neighbors = 51788
Ave neighs/atom = 37.7464
Neighbor list builds = 400
Dangerous builds = 0

jump in-minimise.lj loop

variable a loop 100
run		100
Memory usage per processor = 3.12356 Mbytes
Step Temp E_pair E_mol TotEng Press 
   48000    0.9968088   -5.3638194            0    -3.869696    2.4873773 
   48100    0.9984242   -5.3333061            0   -3.8367614    2.5920831 
Loop time of 0.0741495 on 2 procs for 100 steps with 1372 atoms

Pair  time (%) = 0.0582104 (78.5041)
Neigh time (%) = 0.00733066 (9.88632)
Comm  time (%) = 0.00629139 (8.48474)
Outpt time (%) = 2.8491e-05 (0.0384238)
Other time (%) = 0.00228858 (3.08644)

Nlocal:    686 ave 688 max 684 min
Histogram: 1 0 0 0 0 0 0 0 0 1
Nghost:    2213 ave 2219 max 2207 min
Histogram: 1 0 0 0 0 0 0 0 0 1
Neighs:    25868 ave 26022 max 25714 min
Histogram: 1 0 0 0 0 0 0 0 0 1

Total # of neighbors = 51736
Ave neighs/atom = 37.7085
Neighbor list builds = 5
Dangerous builds = 0
minimize 1.0e-4 1.0e-6 100 1000
WARNING: Resetting reneighboring criteria during minimization (../min.cpp:168)
Neighbor list info ...
  1 neighbor list requests
  update every 1 steps, delay 0 steps, check yes
  master list distance cutoff = 2.8
Memory usage per processor = 4.74856 Mbytes
Step Temp E_pair E_mol TotEng Press 
   48100    0.9984242   -5.3333061            0   -3.8367614    2.5920831 
   48200    0.9984242   -6.7041342            0   -5.2075894   -2.1480138 
Loop time of 0.219322 on 2 procs for 100 steps with 1372 atoms

Minimization stats:
  Stopping criterion = max iterations
  Energy initial, next-to-last, final = 
        -5.33330612108     -6.70207591397     -6.70413415929
  Force two-norm initial, final = 1140.68 29.2664
  Force max component initial, final = 86.6539 5.78727
  Final line search alpha, max atom move = 0.0181825 0.105227
  Iterations, force evaluations = 100 193

Pair  time (%) = 0.143409 (65.3872)
Neigh time (%) = 0.0520543 (23.7341)
Comm  time (%) = 0.0176848 (8.06339)
Outpt time (%) = 3.20673e-05 (0.0146211)
Other time (%) = 0.0061425 (2.80067)

Nlocal:    686 ave 697 max 675 min
Histogram: 1 0 0 0 0 0 0 0 0 1
Nghost:    2204 ave 2214 max 2194 min
Histogram: 1 0 0 0 0 0 0 0 0 1
Neighs:    25872 ave 26072 max 25672 min
Histogram: 1 0 0 0 0 0 0 0 0 1

Total # of neighbors = 51744
Ave neighs/atom = 37.7143
Neighbor list builds = 35
Dangerous builds = 1
next  a
variable myt equal ${a}*10000
variable myt equal 5*10000
reset_timestep ${myt}
reset_timestep 50000
velocity all scale 1
run 8000
Neighbor list info ...
  1 neighbor list requests
  update every 20 steps, delay 0 steps, check no
  master list distance cutoff = 2.8
Memory usage per processor = 3.12356 Mbytes
Step Temp E_pair E_mol TotEng Press 
   50000            1   -6.7041342            0   -5.2052275   -2.1466845 
   50100   0.53882674   -5.9496587            0   -5.1420077   0.18910944 
   50200   0.57400636   -5.9164282            0   -5.0560462  -0.12529717 
   50300   0.58362812   -5.8238176            0   -4.9490135   0.11322183 
   50400   0.64394234   -5.7956814            0   -4.8304719   0.29164474 
   50500   0.69707219   -5.7471623            0   -4.7023162   0.35216976 
   50600   0.71962057   -5.6450985            0   -4.5664544   0.84512547 
   50700   0.76869374    -5.577628            0   -4.4254278    1.2616397 
   50800   0.83237547    -5.529398            0   -4.2817448    1.5468604 
   50900   0.87286752   -5.4479255            0   -4.1395785    1.9778195 
   51000   0.94564266   -5.4230068            0   -4.0055767    2.1184821 
   51100   0.98149518   -5.3579141            0   -3.8867444    2.5296965 
   51200    1.0006746   -5.2891093            0   -3.7891914    2.8315143 
   51300    1.0631748   -5.3189895            0   -3.7253896     2.680649 
   51400    1.0372336   -5.2566505            0   -3.7019341    2.9531296 
   51500    1.0579835   -5.3053312            0   -3.7195127    2.7907604 
   51600    1.0282743   -5.3089711            0   -3.7676839     2.761489 
   51700   0.98998525   -5.3180203            0   -3.8341247     2.611186 
   51800     0.967394   -5.3412961            0   -3.8912628     2.594399 
   51900   0.96442586   -5.3743915            0   -3.9288071    2.3694835 
   52000   0.96817466   -5.3894524            0   -3.9382489    2.3218283 
   52100   0.95771486   -5.3600608            0   -3.9245355    2.4054425 
   52200   0.96780482   -5.3417429            0   -3.8910937      2.54033 
   52300   0.96756017   -5.2999142            0   -3.8496318    2.7989534 
   52400    1.0195697    -5.337538            0   -3.8092982    2.5969028 
   52500    1.0142267   -5.2970386            0   -3.7768075    2.7853384 
   52600    1.0365472   -5.3197482            0   -3.7660607    2.7266345 
   52700    1.0403279    -5.337517            0   -3.7781626    2.6556043 
   52800    1.0180364   -5.3325169            0   -3.8065753    2.6040964 
   52900   0.99744585   -5.3352581            0   -3.8401799    2.5566443 
   53000   0.97056908   -5.3227546            0   -3.8679621    2.6366062 
   53100    1.0127816    -5.398986            0   -3.8809209    2.3065567 
   53200   0.99091135   -5.3730484            0   -3.8877647     2.364413 
   53300   0.98746225   -5.3677366            0   -3.8876228    2.4668809 
   53400   0.99737468   -5.3761374            0   -3.8811658    2.4080289 
   53500    1.0107798    -5.378176            0   -3.8631114    2.4176437 
   53600   0.98495599   -5.3184021            0    -3.842045    2.6810717 
   53700    1.0119387   -5.3331241            0   -3.8163225    2.6595044 
   53800    1.0229231   -5.3285874            0   -3.7953211    2.6060869 
   53900    1.0147237   -5.3051051            0   -3.7841288     2.738915 
   54000     1.017838   -5.3137485            0   -3.7881043    2.6743249 
   54100    1.0129665   -5.3301805            0   -3.8118382    2.5873229 
   54200    1.0203598   -5.3728781            0   -3.8434539    2.4342776 
   54300   0.99092276   -5.3614204            0   -3.8761196    2.4565831 
   54400   0.99810507   -5.3949935            0   -3.8989271    2.2758927 
   54500   0.96862706     -5.35857            0   -3.9066884    2.5232429 
   54600   0.99818434   -5.3942648            0   -3.8980796    2.2547026 
   54700   0.96752365   -5.3216658            0   -3.8714381    2.6122709 
   54800   0.99800082   -5.3292533            0   -3.8333432    2.6023287 
   54900   0.99831759   -5.2941031            0   -3.7977182     2.806609 
   55000    1.0449187   -5.3400676            0    -3.773832    2.6457044 
   55100    1.0295198   -5.3114938            0   -3.7683396    2.7365926 
   55200    1.0256044   -5.3177108            0   -3.7804255    2.7122347 
   55300    1.0190961   -5.3373454            0   -3.8098154    2.5699651 
   55400    1.0057407   -5.3586844            0   -3.8511729    2.4969025 
   55500   0.96721532   -5.3382992            0   -3.8885337    2.4948404 
   55600   0.98348924   -5.3860227            0   -3.9118641    2.3577652 
   55700   0.98449215   -5.3955836            0   -3.9199218    2.3007298 
   55800   0.99728402   -5.3995461            0   -3.9047104    2.3198801 
   55900   0.99935591   -5.3748454            0   -3.8769041     2.411669 
   56000    1.0100239    -5.361271            0   -3.8473394    2.5138458 
   56100    1.0225351   -5.3535448            0   -3.8208601    2.5277928 
   56200    1.0276159   -5.3431675            0   -3.8028671    2.5731655 
   56300    1.0327361   -5.3492679            0   -3.8012929    2.5679422 
   56400    1.0120944   -5.3330381            0    -3.816003     2.607636 
   56500    1.0010953   -5.3385636            0   -3.8380152    2.6329575 
   56600    1.0068159   -5.3685247            0   -3.8594016    2.3979592 
   56700   0.97590334    -5.333503            0   -3.8707149     2.573026 
   56800   0.97313631   -5.3270656            0    -3.868425    2.6110274 
   56900   0.98828655   -5.3352662            0   -3.8539169    2.5895686 
   57000     1.024613   -5.3701846            0   -3.8343854    2.4629613 
   57100    1.0148418   -5.3450786            0   -3.8239255    2.5486058 
   57200     1.012678   -5.3409733            0   -3.8230635    2.5526375 
   57300    1.0134894   -5.3542299            0   -3.8351039    2.5373209 
   57400   0.98040156   -5.3222146            0   -3.8526841    2.6573588 
   57500    1.0218719   -5.3954191            0   -3.8637284    2.3326185 
   57600   0.98945289   -5.3627595            0   -3.8796619    2.4888181 
   57700   0.99408082   -5.3848781            0   -3.8948437    2.3969435 
   57800   0.98031753   -5.3715816            0   -3.9021771    2.3821608 
   57900    1.0021802   -5.3940255            0   -3.8918509    2.3372403 
   58000   0.98274363   -5.3328311            0   -3.8597901    2.5541409 
Loop time of 6.02726 on 2 procs for 8000 steps with 1372 atoms

Pair  time (%) = 4.6341 (76.8857)
Neigh time (%) = 0.630273 (10.457)
Comm  time (%) = 0.581904 (9.65453)
Outpt time (%) = 0.00202167 (0.0335421)
Other time (%) = 0.178961 (2.9692)

Nlocal:    686 ave 686 max 686 min
Histogram: 2 0 0 0 0 0 0 0 0 0
Nghost:    2224 ave 2228 max 2220 min
Histogram: 1 0 0 0 0 0 0 0 0 1
Neighs:    25818.5 ave 25905 max 25732 min
Histogram: 1 0 0 0 0 0 0 0 0 1

Total # of neighbors = 51637
Ave neighs/atom = 37.6363
Neighbor list builds = 400
Dangerous builds = 0

jump in-minimise.lj loop

variable a loop 100
run		100
Memory usage per processor = 3.12356 Mbytes
Step Temp E_pair E_mol TotEng Press 
   58000   0.98274363   -5.3328311            0   -3.8597901    2.5541409 
   58100    1.0363374   -5.3740336            0   -3.8206606    2.4573938 
Loop time of 0.0694542 on 2 procs for 100 steps with 1372 atoms

Pair  time (%) = 0.0545083 (78.481)
Neigh time (%) = 0.00716901 (10.3219)
Comm  time (%) = 0.00569916 (8.20564)
Outpt time (%) = 2.24113e-05 (0.0322678)
Other time (%) = 0.00205529 (2.9592)

Nlocal:    686 ave 689 max 683 min
Histogram: 1 0 0 0 0 0 0 0 0 1
Nghost:    2229.5 ave 2236 max 2223 min
Histogram: 1 0 0 0 0 0 0 0 0 1
Neighs:    25824 ave 25976 max 25672 min
Histogram: 1 0 0 0 0 0 0 0 0 1

Total # of neighbors = 51648
Ave neighs/atom = 37.6443
Neighbor list builds = 5
Dangerous builds = 0
minimize 1.0e-4 1.0e-6 100 1000
WARNING: Resetting reneighboring criteria during minimization (../min.cpp:168)
Neighbor list info ...
  1 neighbor list requests
  update every 1 steps, delay 0 steps, check yes
  master list distance cutoff = 2.8
Memory usage per processor = 4.74856 Mbytes
Step Temp E_pair E_mol TotEng Press 
   58100    1.0363374   -5.3740336            0   -3.8206606    2.4573938 
   58200    1.0363374   -6.6961231            0   -5.1427501   -2.1714603 
Loop time of 0.204973 on 2 procs for 100 steps with 1372 atoms

Minimization stats:
  Stopping criterion = max iterations
  Energy initial, next-to-last, final = 
        -5.37403357973     -6.69421980077      -6.6961231338
  Force two-norm initial, final = 1110.01 33.2149
  Force max component initial, final = 100.462 9.40984
  Final line search alpha, max atom move = 0.00898265 0.0845254
  Iterations, force evaluations = 100 197

Pair  time (%) = 0.136096 (66.3972)
Neigh time (%) = 0.0469218 (22.8917)
Comm  time (%) = 0.0168835 (8.23694)
Outpt time (%) = 2.44379e-05 (0.0119225)
Other time (%) = 0.00504684 (2.4622)

Nlocal:    686 ave 708 max 664 min
Histogram: 1 0 0 0 0 0 0 0 0 1
Nghost:    2219.5 ave 2239 max 2200 min
Histogram: 1 0 0 0 0 0 0 0 0 1
Neighs:    25811.5 ave 27164 max 24459 min
Histogram: 1 0 0 0 0 0 0 0 0 1

Total # of neighbors = 51623
Ave neighs/atom = 37.6261
Neighbor list builds = 33
Dangerous builds = 0
next  a
variable myt equal ${a}*10000
variable myt equal 6*10000
reset_timestep ${myt}
reset_timestep 60000
velocity all scale 1
run 8000
Neighbor list info ...
  1 neighbor list requests
  update every 20 steps, delay 0 steps, check no
  master list distance cutoff = 2.8
Memory usage per processor = 3.1236 Mbytes
Step Temp E_pair E_mol TotEng Press 
   60000            1   -6.6961231            0   -5.1972164    -2.202114 
   60100     0.546425    -5.958065            0   -5.1390249 -0.017878832 
   60200   0.55273401   -5.8802772            0   -5.0517805 -0.084929617 
   60300   0.59112386   -5.8334221            0   -4.9473826 -0.051269603 
   60400   0.63428886    -5.780253            0   -4.8295132   0.20865073 
   60500   0.67826768   -5.7184314            0   -4.7017714   0.49072447 
   60600   0.72502227   -5.6503841            0   -4.5636434   0.86765539 
   60700   0.79475728   -5.6157585            0   -4.4244915    1.0804237 
   60800   0.80950026   -5.4962332            0   -4.2828679    1.6563889 
   60900   0.88588436   -5.4668687            0   -4.1390107    1.8825431 
   61000   0.94600523   -5.4252707            0   -4.0072972    2.1406886 
   61100   0.99294157   -5.3769503            0   -3.8886235    2.3774612 
   61200    1.0260726   -5.3308874            0   -3.7929003    2.6690431 
   61300    1.0550453   -5.3089549            0   -3.7275404     2.799709 
   61400    1.0596478   -5.2821198            0   -3.6938066     2.835134 
   61500    1.0656715   -5.2977801            0   -3.7004378    2.7706042 
   61600    1.0455353    -5.313122            0   -3.7459621      2.70578 
   61700   0.99497993   -5.3017726            0   -3.8103905    2.8116589 
   61800   0.98055795   -5.3457655            0   -3.8760006    2.5151287 
   61900   0.99487871   -5.4165768            0   -3.9253464    2.2155767 
   62000   0.94147294   -5.3660028            0   -3.9548227    2.3734651 
   62100   0.95800808   -5.3853479            0   -3.9493832       2.2709 
   62200   0.97943244   -5.3800253            0   -3.9119475    2.3964344 
   62300    1.0012693   -5.3568444            0   -3.8560351    2.5505105 
   62400    1.0315091   -5.3446724            0   -3.7985364    2.5712763 
   62500    1.0351125   -5.3125723            0   -3.7610353    2.6903021 
   62600    1.0555657   -5.3295996            0   -3.7474051     2.633724 
   62700    1.0376406   -5.3181279            0   -3.7628015    2.7274927 
   62800   0.99833018   -5.2987214            0   -3.8023176    2.7943859 
   62900   0.99704047   -5.3453197            0   -3.8508491    2.5374443 
   63000   0.98114344   -5.3599842            0   -3.8893417    2.4395251 
   63100   0.95774737   -5.3443299            0   -3.9087559    2.5445525 
   63200   0.95733145   -5.3407732            0   -3.9058227    2.5790494 
   63300   0.97820911   -5.3512038            0   -3.8849596    2.4600454 
   63400    1.0077485    -5.352405            0    -3.841884    2.5551887 
   63500    1.0088422   -5.3107066            0   -3.7985462    2.7372415 
   63600     1.024313   -5.3044907            0   -3.7691411    2.7667327 
   63700    1.0529095    -5.335972            0   -3.7577589    2.6433138 
   63800    1.0296293   -5.3096537            0   -3.7663355    2.7610458 
   63900    1.0305573   -5.3410826            0   -3.7963734    2.6328526 
   64000    1.0126171   -5.3564154            0   -3.8385968    2.5135286 
   64100   0.98171616    -5.352304            0   -3.8808031     2.487718 
   64200    0.9634454   -5.3603052            0   -3.9161905     2.488762 
   64300   0.97634104    -5.394174            0   -3.9307298    2.2790166 
   64400   0.96133804   -5.3649869            0   -3.9240309    2.4749056 
   64500   0.98467359   -5.3709616            0   -3.8950278    2.4012902 
   64600    1.0092339   -5.3650425            0   -3.8522951    2.4726431 
   64700    1.0137112   -5.3272992            0   -3.8078407    2.6067289 
   64800    1.0292288   -5.3165716            0   -3.7738536    2.7710725 
   64900    1.0465011   -5.3287752            0   -3.7601677    2.6552073 
   65000    1.0324355   -5.3214938            0   -3.7739693    2.7512803 
   65100    1.0236517    -5.342068            0   -3.8077095    2.5805565 
   65200    1.0044917   -5.3539047            0   -3.8482653    2.5204874 
   65300    1.0064318   -5.3907032            0   -3.8821558    2.3256228 
   65400   0.94854727   -5.3268403            0   -3.9050564    2.5968011 
   65500   0.96386431   -5.3511274            0   -3.9063847    2.4891512 
   65600   0.97859926   -5.3510774            0   -3.8842484    2.5393571 
   65700   0.96506525   -5.2960795            0   -3.8495367    2.7034283 
   65800    1.0434554   -5.3738423            0   -3.8097999    2.4272402 
   65900    1.0277363    -5.325078            0   -3.7845972    2.6673976 
   66000      1.03703   -5.3328732            0    -3.778462    2.6329918 
   66100    1.0059954   -5.3023677            0   -3.7944745    2.7490148 
   66200    1.0031194   -5.3304437            0   -3.8268613    2.6159802 
   66300   0.99536446   -5.3470303            0   -3.8550718    2.5309699 
   66400   0.95142601   -5.3012655            0   -3.8751667    2.6630494 
   66500   0.98965802   -5.3678894            0   -3.8844843    2.4393914 
   66600   0.97368598   -5.3470791            0   -3.8876147    2.5285823 
   66700   0.97113333   -5.3339585            0   -3.8783203    2.5809841 
   66800   0.99442919   -5.3484545            0    -3.857898    2.5417079 
   66900    0.9917553   -5.3235445            0   -3.8369958    2.6276919 
   67000   0.99669415   -5.3097059            0   -3.8157544    2.6946454 
   67100    1.0429308   -5.3624979            0   -3.7992419    2.5252169 
   67200    1.0372353   -5.3537154            0   -3.7989965    2.5200256 
   67300    1.0300811   -5.3597795            0    -3.815784     2.508217 
   67400    1.0147439   -5.3629474            0    -3.841941    2.4195151 
   67500   0.98167114   -5.3376391            0   -3.8662057    2.5900743 
   67600   0.98458512   -5.3602982            0    -3.884497    2.4647941 
   67700   0.97596558   -5.3534376            0   -3.8905562    2.5295309 
   67800   0.98305444    -5.357239            0   -3.8837321     2.468755 
   67900    0.9774681   -5.3270257            0   -3.8618922    2.6282274 
   68000    1.0233306   -5.3574501            0    -3.823573    2.5309334 
Loop time of 6.12095 on 2 procs for 8000 steps with 1372 atoms

Pair  time (%) = 4.64694 (75.9187)
Neigh time (%) = 0.648825 (10.6001)
Comm  time (%) = 0.641026 (10.4727)
Outpt time (%) = 0.00217426 (0.0355216)
Other time (%) = 0.181981 (2.97308)

Nlocal:    686 ave 686 max 686 min
Histogram: 2 0 0 0 0 0 0 0 0 0
Nghost:    2239.5 ave 2246 max 2233 min
Histogram: 1 0 0 0 0 0 0 0 0 1
Neighs:    25913 ave 25970 max 25856 min
Histogram: 1 0 0 0 0 0 0 0 0 1

Total # of neighbors = 51826
Ave neighs/atom = 37.7741
Neighbor list builds = 400
Dangerous builds = 0

jump in-minimise.lj loop

variable a loop 100
run		100
Memory usage per processor = 3.1236 Mbytes
Step Temp E_pair E_mol TotEng Press 
   68000    1.0233306   -5.3574501            0    -3.823573    2.5309334 
   68100    1.0141285   -5.3153919            0   -3.7953078    2.7184966 
Loop time of 0.0659585 on 2 procs for 100 steps with 1372 atoms

Pair  time (%) = 0.0518124 (78.553)
Neigh time (%) = 0.007617 (11.5482)
Comm  time (%) = 0.00463998 (7.0347)
Outpt time (%) = 2.25306e-05 (0.0341587)
Other time (%) = 0.00186658 (2.82993)

Nlocal:    686 ave 686 max 686 min
Histogram: 2 0 0 0 0 0 0 0 0 0
Nghost:    2233 ave 2241 max 2225 min
Histogram: 1 0 0 0 0 0 0 0 0 1
Neighs:    25860.5 ave 26043 max 25678 min
Histogram: 1 0 0 0 0 0 0 0 0 1

Total # of neighbors = 51721
Ave neighs/atom = 37.6975
Neighbor list builds = 5
Dangerous builds = 0
minimize 1.0e-4 1.0e-6 100 1000
WARNING: Resetting reneighboring criteria during minimization (../min.cpp:168)
Neighbor list info ...
  1 neighbor list requests
  update every 1 steps, delay 0 steps, check yes
  master list distance cutoff = 2.8
Memory usage per processor = 4.7486 Mbytes
Step Temp E_pair E_mol TotEng Press 
   68100    1.0141285   -5.3153919            0   -3.7953078    2.7184966 
   68200    1.0141285   -6.6747407            0   -5.1546566    -2.137822 
Loop time of 0.196835 on 2 procs for 100 steps with 1372 atoms

Minimization stats:
  Stopping criterion = max iterations
  Energy initial, next-to-last, final = 
        -5.31539188206     -6.67331524476       -6.674740684
  Force two-norm initial, final = 1145.85 26.4106
  Force max component initial, final = 93.1951 6.42917
  Final line search alpha, max atom move = 0.0127132 0.0817351
  Iterations, force evaluations = 100 194

Pair  time (%) = 0.128498 (65.2821)
Neigh time (%) = 0.0503467 (25.5781)
Comm  time (%) = 0.0131429 (6.67714)
Outpt time (%) = 2.44379e-05 (0.0124154)
Other time (%) = 0.00482297 (2.45026)

Nlocal:    686 ave 694 max 678 min
Histogram: 1 0 0 0 0 0 0 0 0 1
Nghost:    2225.5 ave 2245 max 2206 min
Histogram: 1 0 0 0 0 0 0 0 0 1
Neighs:    25759 ave 26336 max 25182 min
Histogram: 1 0 0 0 0 0 0 0 0 1

Total # of neighbors = 51518
Ave neighs/atom = 37.5496
Neighbor list builds = 36
Dangerous builds = 0
next  a
variable myt equal ${a}*10000
variable myt equal 7*10000
reset_timestep ${myt}
reset_timestep 70000
velocity all scale 1
run 8000
Neighbor list info ...
  1 neighbor list requests
  update every 20 steps, delay 0 steps, check no
  master list distance cutoff = 2.8
Memory usage per processor = 3.1236 Mbytes
Step Temp E_pair E_mol TotEng Press 
   70000            1   -6.6747407            0    -5.175834   -2.1497406 
   70100   0.54825259   -5.9445481            0   -5.1227686  -0.15911082 
   70200   0.54677748   -5.8569895            0   -5.0374211 -0.026101301 
   70300    0.5891655    -5.817689            0   -4.9345849  0.056999031 
   70400   0.61987477   -5.7466086            0   -4.8174742   0.36107618 
   70500   0.66742058   -5.6910818            0   -4.6906806   0.64126784 
   70600   0.73159485   -5.6523066            0   -4.5557142    0.8035003 
   70700   0.77558925   -5.5763317            0   -4.4137958    1.2213768 
   70800   0.83105028   -5.5164272            0   -4.2707604    1.5785449 
   70900   0.91494988   -5.5005043            0   -4.1290797    1.7718932 
   71000    0.9214635   -5.3779225            0   -3.9967347     2.308368 
   71100    1.0014819   -5.3795031            0   -3.8783752    2.3605645 
   71200    1.0335791   -5.3297621            0   -3.7805235    2.6236548 
   71300    1.0615201   -5.3009374            0   -3.7098179    2.7826798 
   71400    1.0661365   -5.2839916            0   -3.6859524    2.8907837 
   71500    1.0673453   -5.3121593            0   -3.7123083    2.6979569 
   71600    1.0222703    -5.309054            0   -3.7767662    2.7100416 
   71700    1.0011813   -5.3474533            0    -3.846776    2.5515802 
   71800   0.97218877   -5.3623528            0   -3.9051325    2.4238455 
   71900   0.95864195   -5.3777673            0   -3.9408524    2.3606611 
   72000   0.95886107   -5.3821035            0   -3.9448602    2.3376578 
   72100   0.95978511   -5.3554037            0   -3.9167753     2.433311 
   72200    0.9885349     -5.34931            0   -3.8675884    2.4792104 
   72300    1.0187194    -5.345945            0   -3.8189796    2.5479336 
   72400     1.031026   -5.3226779            0   -3.7772661    2.6696192 
   72500    1.0286562   -5.3046563            0   -3.7627966    2.7237237 
   72600    1.0313149    -5.323275            0   -3.7774301     2.742482 
   72700     1.005154   -5.3188362            0   -3.8122041    2.6642294 
   72800    1.0121632    -5.369167            0   -3.8520289     2.424558 
   72900   0.97647955   -5.3549449            0   -3.8912932    2.4547209 
   73000   0.98304043   -5.3858062            0   -3.9123203    2.3312383 
   73100   0.98212102   -5.3823934            0   -3.9102856    2.3532548 
   73200   0.96927069   -5.3423858            0   -3.8895395    2.5062303 
   73300    1.0004363   -5.3535656            0   -3.8540049    2.5433304 
   73400    1.0148186   -5.3405814            0   -3.8194629    2.6002623 
   73500    1.0210019   -5.3180239            0   -3.7876372     2.687685 
   73600    1.0299474   -5.3174547            0   -3.7736597    2.7458395 
   73700    1.0282025   -5.3262745            0   -3.7850948    2.6643288 
   73800    1.0080517   -5.3264743            0   -3.8154988    2.6770878 
   73900   0.97644167    -5.313484            0    -3.849889    2.7130616 
   74000   0.96998706   -5.3349831            0    -3.881063    2.6247776 
   74100   0.98864883   -5.3793305            0   -3.8974382    2.3650674 
   74200   0.97990463   -5.3678838            0   -3.8990982    2.3958187 
   74300    1.0058331   -5.3912734            0   -3.8836235    2.2798393 
   74400   0.97834824   -5.3223601            0   -3.8559074    2.6703017 
   74500    1.0014499   -5.3262224            0   -3.8251424    2.6491188 
   74600    1.0105843   -5.3126393            0   -3.7978677    2.7210401 
   74700    1.0263143   -5.3195711            0   -3.7812218    2.6727373 
   74800     1.054042   -5.3602856            0    -3.780375    2.5013583 
   74900     1.008493   -5.3109955            0   -3.7993587    2.7556584 
   75000    1.0111311   -5.3421261            0    -3.826535    2.5624679 
   75100   0.97540162   -5.3182802            0   -3.8562442    2.6193007 
   75200   0.98793199   -5.3606441            0   -3.8798262    2.4152239 
   75300   0.98548119   -5.3693301            0   -3.8921858    2.3656461 
   75400   0.96913366   -5.3404916            0   -3.8878507    2.6148345 
   75500    1.0023179   -5.3722739            0   -3.8698928    2.4858016 
   75600    1.0162583   -5.3680901            0   -3.8448137    2.4534659 
   75700    1.0206593   -5.3479519            0   -3.8180789    2.5454278 
   75800    1.0255388   -5.3353027            0   -3.7981157    2.6257355 
   75900    1.0260758   -5.3315118            0   -3.7935199    2.6168871 
   76000    1.0032321   -5.3061048            0   -3.8023535    2.7168296 
   76100     0.993388   -5.3122257            0   -3.8232297    2.6691933 
   76200   0.99211267   -5.3363366            0   -3.8492522     2.566735 
   76300   0.98217827   -5.3468124            0   -3.8746188    2.5268904 
   76400   0.98843488   -5.3707372            0   -3.8891655    2.4171135 
   76500    1.0068467   -5.4022286            0   -3.8930594    2.2457253 
   76600   0.96550193     -5.33306            0   -3.8858627    2.5802194 
   76700    1.0119791   -5.3814525            0   -3.8645903    2.3936382 
   76800   0.99686513   -5.3322227            0   -3.8380149    2.5797215 
   76900   0.99863738   -5.3111816            0   -3.8143174    2.7159453 
   77000    1.0185361   -5.3275016            0    -3.800811    2.6714544 
   77100    1.0362208   -5.3549862            0   -3.8017879    2.6029698 
   77200    1.0051788   -5.3244562            0    -3.817787    2.7112129 
   77300    1.0013752   -5.3365818            0   -3.8356137    2.6139694 
   77400    1.0020993    -5.355807            0   -3.8537537    2.5219362 
   77500   0.99009955   -5.3546295            0   -3.8705626    2.5028979 
   77600   0.97498076   -5.3464995            0   -3.8850943     2.541542 
   77700    1.0073494   -5.3963882            0   -3.8864655    2.3065637 
   77800   0.95817301   -5.3058705            0   -3.8696586    2.6872974 
   77900   0.98800237   -5.3147841            0   -3.8338608    2.6565475 
   78000    1.0468236   -5.3723597            0   -3.8032687    2.4843477 
Loop time of 5.6635 on 2 procs for 8000 steps with 1372 atoms

Pair  time (%) = 4.39506 (77.6033)
Neigh time (%) = 0.61886 (10.9272)
Comm  time (%) = 0.48787 (8.61429)
Outpt time (%) = 0.00192153 (0.0339284)
Other time (%) = 0.159786 (2.82133)

Nlocal:    686 ave 691 max 681 min
Histogram: 1 0 0 0 0 0 0 0 0 1
Nghost:    2223.5 ave 2236 max 2211 min
Histogram: 1 0 0 0 0 0 0 0 0 1
Neighs:    25836.5 ave 26268 max 25405 min
Histogram: 1 0 0 0 0 0 0 0 0 1

Total # of neighbors = 51673
Ave neighs/atom = 37.6625
Neighbor list builds = 400
Dangerous builds = 0

jump in-minimise.lj loop

variable a loop 100
run		100
Memory usage per processor = 3.1236 Mbytes
Step Temp E_pair E_mol TotEng Press 
   78000    1.0468236   -5.3723597            0   -3.8032687    2.4843477 
   78100    1.0119503   -5.3137387            0   -3.7969196    2.6841991 
Loop time of 0.107132 on 2 procs for 100 steps with 1372 atoms

Pair  time (%) = 0.0752603 (70.2499)
Neigh time (%) = 0.00959706 (8.95815)
Comm  time (%) = 0.0146148 (13.6419)
Outpt time (%) = 3.25441e-05 (0.0303775)
Other time (%) = 0.00762749 (7.1197)

Nlocal:    686 ave 689 max 683 min
Histogram: 1 0 0 0 0 0 0 0 0 1
Nghost:    2230 ave 2233 max 2227 min
Histogram: 1 0 0 0 0 0 0 0 0 1
Neighs:    25777.5 ave 25890 max 25665 min
Histogram: 1 0 0 0 0 0 0 0 0 1

Total # of neighbors = 51555
Ave neighs/atom = 37.5765
Neighbor list builds = 5
Dangerous builds = 0
minimize 1.0e-4 1.0e-6 100 1000
WARNING: Resetting reneighboring criteria during minimization (../min.cpp:168)
Neighbor list info ...
  1 neighbor list requests
  update every 1 steps, delay 0 steps, check yes
  master list distance cutoff = 2.8
Memory usage per processor = 4.7486 Mbytes
Step Temp E_pair E_mol TotEng Press 
   78100    1.0119503   -5.3137387            0   -3.7969196    2.6841991 
   78200    1.0119503   -6.6897911            0    -5.172972   -2.1303859 
Loop time of 0.268645 on 2 procs for 100 steps with 1372 atoms

Minimization stats:
  Stopping criterion = max iterations
  Energy initial, next-to-last, final = 
        -5.31373865368     -6.68777083037     -6.68979105429
  Force two-norm initial, final = 1163.47 31.0416
  Force max component initial, final = 103.448 6.49474
  Final line search alpha, max atom move = 0.01005 0.0652719
  Iterations, force evaluations = 100 189

Pair  time (%) = 0.174254 (64.8643)
Neigh time (%) = 0.0574356 (21.3798)
Comm  time (%) = 0.0296539 (11.0383)
Outpt time (%) = 2.5034e-05 (0.00931861)
Other time (%) = 0.00727558 (2.70826)

Nlocal:    686 ave 687 max 685 min
Histogram: 1 0 0 0 0 0 0 0 0 1
Nghost:    2226.5 ave 2230 max 2223 min
Histogram: 1 0 0 0 0 0 0 0 0 1
Neighs:    25825.5 ave 25902 max 25749 min
Histogram: 1 0 0 0 0 0 0 0 0 1

Total # of neighbors = 51651
Ave neighs/atom = 37.6465
Neighbor list builds = 33
Dangerous builds = 0
next  a
variable myt equal ${a}*10000
variable myt equal 8*10000
reset_timestep ${myt}
reset_timestep 80000
velocity all scale 1
run 8000
Neighbor list info ...
  1 neighbor list requests
  update every 20 steps, delay 0 steps, check no
  master list distance cutoff = 2.8
Memory usage per processor = 3.1236 Mbytes
Step Temp E_pair E_mol TotEng Press 
   80000            1   -6.6897911            0   -5.1908843    -2.140467 
   80100   0.53086657   -5.9335939            0   -5.1378745  0.064817115 
   80200   0.55164445   -5.8816787            0   -5.0548151 -0.054080744 
   80300   0.58073624   -5.8223542            0   -4.9518847   0.17233845 
   80400   0.64289848   -5.7992754            0   -4.8356305   0.22670524 
   80500   0.69178924   -5.7440131            0   -4.7070856   0.44582791 
   80600   0.73607672   -5.6735209            0   -4.5702106   0.75003054 
   80700   0.78975783   -5.6124946            0   -4.4287213    1.0553168 
   80800   0.84259539   -5.5499763            0   -4.2870045    1.4187749 
   80900   0.89633667   -5.4906204            0   -4.1470954    1.7829532 
   81000   0.92969261   -5.4064174            0   -4.0128949    2.2583583 
   81100   0.98968467   -5.3786723            0   -3.8952273    2.3657938 
   81200    1.0004979   -5.2976758            0   -3.7980228    2.7303769 
   81300    1.0597792   -5.3155646            0   -3.7270545    2.7198949 
   81400    1.0595066   -5.2847063            0   -3.6966047    2.8813712 
   81500    1.0446645   -5.2809364            0   -3.7150818    2.9404681 
   81600    1.0151917   -5.2972434            0   -3.7755658    2.8165413 
   81700    1.0100187   -5.3590301            0   -3.8451063    2.4833924 
   81800   0.97711487   -5.3669437            0   -3.9023396    2.4595664 
   81900   0.98296233   -5.4116259            0   -3.9382571    2.2108588 
   82000   0.98691696   -5.4272277            0   -3.9479312    2.1626038 
   82100   0.96616939   -5.3844548            0    -3.936257    2.3192805 
   82200     1.002691   -5.4117027            0   -3.9087624    2.2778421 
   82300   0.97930927   -5.3352314            0   -3.8673382    2.5186895 
   82400   0.99033832   -5.3069266            0   -3.8225018    2.6471751 
   82500   0.99765398   -5.2831475            0   -3.7877573    2.8470025 
   82600    1.0374644   -5.3230088            0   -3.7679464    2.7043665 
   82700    1.0128773   -5.2901382            0   -3.7719296    2.8340506 
   82800    1.0118632   -5.3116665            0    -3.794978    2.7180739 
   82900    0.9904936   -5.3153251            0   -3.8306676    2.7354037 
   83000   0.99725886   -5.3599197            0   -3.8651217    2.5381805 
   83100   0.98127014   -5.3642577            0   -3.8934253    2.4537672 
   83200   0.96471454   -5.3505545            0   -3.9045374    2.5180995 
   83300   0.96542483   -5.3422315            0   -3.8951497    2.5596395 
   83400   0.99750998   -5.3653034            0    -3.870129    2.4616063 
   83500   0.98591418    -5.313538            0   -3.8357447    2.7107101 
   83600   0.98582487   -5.2856072            0   -3.8079477    2.8606571 
   83700    1.0197832   -5.3173088            0   -3.7887489    2.7002048 
   83800    1.0248661   -5.3197469            0   -3.7835682    2.7054967 
   83900    1.0120042   -5.3164285            0   -3.7995286    2.6841736 
   84000    1.0101177   -5.3360386            0   -3.8219664    2.5866238 
   84100    1.0062937   -5.3554821            0   -3.8471417    2.4898703 
   84200   0.97022964   -5.3234425            0   -3.8691588    2.6142591 
   84300   0.96913277   -5.3370549            0   -3.8844153    2.5534026 
   84400    1.0022293   -5.3899749            0   -3.8877266    2.2998518 
   84500   0.99691541   -5.3727448            0   -3.8784616    2.3868129 
   84600   0.99304503   -5.3518812            0   -3.8633994    2.4828052 
   84700   0.99671125   -5.3406627            0   -3.8466855    2.5508545 
   84800    1.0122805   -5.3507765            0   -3.8334624    2.4676502 
   84900     1.013444     -5.34443            0   -3.8253721    2.5488839 
   85000    1.0082879   -5.3360134            0   -3.8246839    2.6207001 
   85100    1.0224659   -5.3627758            0   -3.8301949    2.4836537 
   85200    0.9744664   -5.3000142            0     -3.83938    2.8022325 
   85300    1.0054026   -5.3580964            0   -3.8510917    2.5350374 
   85400   0.99484531   -5.3568824            0   -3.8657021    2.5011648 
   85500   0.99984024   -5.3773783            0    -3.878711    2.3778087 
   85600   0.97710381   -5.3480383            0   -3.8834509    2.5113894 
   85700   0.99048613   -5.3627838            0   -3.8781375    2.4496526 
   85800    1.0088207   -5.3752132            0   -3.8630851    2.4642187 
   85900    1.0253132   -5.3805621            0   -3.8437133    2.3723305 
   86000    1.0183461    -5.352109            0   -3.8257032    2.5240783 
   86100    1.0181089   -5.3404245            0   -3.8143742    2.5726436 
   86200    1.0219404   -5.3429885            0   -3.8111952    2.5968896 
   86300    1.0021492   -5.3244058            0   -3.8222777    2.6223888 
   86400   0.99012978   -5.3207782            0    -3.836666    2.6852981 
   86500   0.98682274   -5.3280084            0   -3.8488531     2.629955 
   86600    1.0359937   -5.4116889            0   -3.8588309    2.2759512 
   86700    1.0026318   -5.3721165            0    -3.869265    2.4433514 
   86800   0.99950029   -5.3739459            0   -3.8757882    2.4659318 
   86900   0.98600948    -5.348358            0   -3.8704218    2.4648798 
   87000    1.0161474   -5.3819789            0   -3.8588688    2.3973576 
   87100    1.0194579    -5.372742            0   -3.8446697    2.4338437 
   87200    1.0029188   -5.3333826            0   -3.8301008     2.601873 
   87300    1.0277408   -5.3592534            0   -3.8187657    2.5123227 
   87400    1.0037121   -5.3160601            0   -3.8115894    2.6703354 
   87500    1.0069362   -5.3224928            0   -3.8131894    2.6446752 
   87600    1.0181984   -5.3561874            0    -3.830003    2.5346213 
   87700   0.99448118   -5.3479027            0   -3.8572682    2.4876094 
   87800   0.99388126   -5.3704067            0   -3.8806714    2.3865877 
   87900   0.99193952   -5.3769144            0   -3.8900896    2.3860122 
   88000   0.96585837   -5.3333787            0   -3.8856471    2.5609532 
Loop time of 5.58499 on 2 procs for 8000 steps with 1372 atoms

Pair  time (%) = 4.33997 (77.7078)
Neigh time (%) = 0.615856 (11.027)
Comm  time (%) = 0.473007 (8.46926)
Outpt time (%) = 0.00195122 (0.0349368)
Other time (%) = 0.154206 (2.76107)

Nlocal:    686 ave 693 max 679 min
Histogram: 1 0 0 0 0 0 0 0 0 1
Nghost:    2221 ave 2230 max 2212 min
Histogram: 1 0 0 0 0 0 0 0 0 1
Neighs:    25843.5 ave 26277 max 25410 min
Histogram: 1 0 0 0 0 0 0 0 0 1

Total # of neighbors = 51687
Ave neighs/atom = 37.6727
Neighbor list builds = 400
Dangerous builds = 0

jump in-minimise.lj loop

variable a loop 100
run		100
Memory usage per processor = 3.1236 Mbytes
Step Temp E_pair E_mol TotEng Press 
   88000   0.96585837   -5.3333787            0   -3.8856471    2.5609532 
   88100    0.9964008   -5.3575225            0   -3.8640107    2.5358254 
Loop time of 0.0796547 on 2 procs for 100 steps with 1372 atoms

Pair  time (%) = 0.0598806 (75.1752)
Neigh time (%) = 0.00896704 (11.2574)
Comm  time (%) = 0.0081718 (10.259)
Outpt time (%) = 2.25306e-05 (0.0282853)
Other time (%) = 0.00261271 (3.28005)

Nlocal:    686 ave 694 max 678 min
Histogram: 1 0 0 0 0 0 0 0 0 1
Nghost:    2246 ave 2259 max 2233 min
Histogram: 1 0 0 0 0 0 0 0 0 1
Neighs:    25843.5 ave 26256 max 25431 min
Histogram: 1 0 0 0 0 0 0 0 0 1

Total # of neighbors = 51687
Ave neighs/atom = 37.6727
Neighbor list builds = 5
Dangerous builds = 0
minimize 1.0e-4 1.0e-6 100 1000
WARNING: Resetting reneighboring criteria during minimization (../min.cpp:168)
Neighbor list info ...
  1 neighbor list requests
  update every 1 steps, delay 0 steps, check yes
  master list distance cutoff = 2.8
Memory usage per processor = 4.7486 Mbytes
Step Temp E_pair E_mol TotEng Press 
   88100    0.9964008   -5.3575225            0   -3.8640107    2.5358254 
   88200    0.9964008   -6.6976123            0   -5.2041005   -2.0739208 
Loop time of 0.203777 on 2 procs for 100 steps with 1372 atoms

Minimization stats:
  Stopping criterion = max iterations
  Energy initial, next-to-last, final = 
        -5.35752249329     -6.69523835125     -6.69761233417
  Force two-norm initial, final = 1111.78 31.4478
  Force max component initial, final = 87.3661 4.70835
  Final line search alpha, max atom move = 0.00923148 0.043465
  Iterations, force evaluations = 100 189

Pair  time (%) = 0.133705 (65.6134)
Neigh time (%) = 0.048108 (23.6081)
Comm  time (%) = 0.0162752 (7.98675)
Outpt time (%) = 2.44379e-05 (0.0119925)
Other time (%) = 0.00566435 (2.77968)

Nlocal:    686 ave 712 max 660 min
Histogram: 1 0 0 0 0 0 0 0 0 1
Nghost:    2207 ave 2220 max 2194 min
Histogram: 1 0 0 0 0 0 0 0 0 1
Neighs:    25818.5 ave 27435 max 24202 min
Histogram: 1 0 0 0 0 0 0 0 0 1

Total # of neighbors = 51637
Ave neighs/atom = 37.6363
Neighbor list builds = 33
Dangerous builds = 0
next  a
variable myt equal ${a}*10000
variable myt equal 9*10000
reset_timestep ${myt}
reset_timestep 90000
velocity all scale 1
run 8000
Neighbor list info ...
  1 neighbor list requests
  update every 20 steps, delay 0 steps, check no
  master list distance cutoff = 2.8
Memory usage per processor = 3.12383 Mbytes
Step Temp E_pair E_mol TotEng Press 
   90000            1   -6.6976123            0   -5.1987056   -2.0708846 
   90100   0.53238824   -5.9307328            0   -5.1327325   0.17172472 
   90200   0.54219741   -5.8586003            0   -5.0458969 -0.0019199118 
   90300   0.59072103   -5.8259174            0   -4.9404817  0.060395851 
   90400   0.63744211   -5.7780953            0    -4.822629    0.2726871 
   90500   0.68947386   -5.7264035            0   -4.6929465   0.57426981 
   90600    0.7357352   -5.6593737            0   -4.5565752   0.87452682 
   90700   0.77966505   -5.5836527            0   -4.4150075    1.2874834 
   90800   0.83106438   -5.5174898            0   -4.2718018    1.6265864 
   90900   0.89044214   -5.4652781            0   -4.1305884    1.8538622 
   91000   0.94329604   -5.4117505            0   -3.9978377    2.1460465 
   91100   0.98530168   -5.3571276            0   -3.8802523    2.4800997 
   91200    1.0135798   -5.3059365            0    -3.786675    2.7889695 
   91300    1.0274217   -5.2617005            0   -3.7216913    2.9842498 
   91400    1.0746163   -5.3054926            0    -3.694743    2.8113975 
   91500    1.0449788   -5.2840337            0   -3.7177081    2.8588288 
   91600    1.0499092   -5.3481655            0   -3.7744495    2.5473744 
   91700    1.0180767   -5.3701945            0   -3.8441925    2.4748265 
   91800   0.96419213   -5.3494534            0   -3.9042194    2.5126367 
   91900    0.9745708   -5.3980715            0   -3.9372808    2.2537318 
   92000   0.94213438   -5.3524634            0   -3.9402919    2.4606708 
   92100   0.98061306   -5.3837724            0   -3.9139249    2.3433601 
   92200   0.99263399   -5.3548361            0   -3.8669703     2.562313 
   92300    0.9992437   -5.3136442            0   -3.8158711    2.6597457 
   92400    1.0548204   -5.3525705            0   -3.7714932    2.5799203 
   92500    1.0193099    -5.279176            0   -3.7513255    2.8624414 
   92600    1.0617247   -5.3485142            0   -3.7570878    2.6165312 
   92700    1.0122492   -5.3079677            0   -3.7907006    2.7074112 
   92800    1.0204967   -5.3652831            0   -3.8356537    2.4374373 
   92900   0.96396753   -5.3200006            0   -3.8751032    2.5930563 
   93000   0.98435607   -5.3770236            0   -3.9015657    2.3558478 
   93100   0.97769798   -5.3799274            0   -3.9144494    2.3878839 
   93200   0.95912238   -5.3512182            0   -3.9135832    2.4955542 
   93300    1.0017861   -5.3948949            0    -3.893311    2.3043767 
   93400   0.99159012   -5.3495557            0   -3.8632546    2.4938976 
   93500    1.0144423   -5.3505712            0   -3.8300169    2.5674216 
   93600    1.0018793   -5.3054471            0   -3.8037236    2.7761843 
   93700    1.0176405   -5.3138475            0   -3.7884993    2.7180287 
   93800    1.0026708   -5.2921651            0   -3.7892551    2.8151307 
   93900   0.99819766    -5.304744            0   -3.8085389    2.7612387 
   94000    1.0016116   -5.3302545            0   -3.8289322    2.7160761 
   94100   0.98249924   -5.3246379            0   -3.8519632    2.5694256 
   94200    1.0032395   -5.3684302            0   -3.8646677    2.4401557 
   94300   0.98840858   -5.3550812            0    -3.873549    2.5393558 
   94400   0.98715584   -5.3493075            0    -3.869653     2.491594 
   94500    1.0082078   -5.3649132            0   -3.8537038    2.4284507 
   94600    1.0216636    -5.368101            0   -3.8367225    2.4763145 
   94700   0.99203729   -5.3087925            0   -3.8218212    2.7227578 
   94800    1.0190638   -5.3380226            0   -3.8105411    2.6069043 
   94900     1.007784    -5.318563            0   -3.8079888    2.7190252 
   95000   0.99180955    -5.304832            0    -3.818202    2.7678749 
   95100   0.99225897   -5.3184746            0   -3.8311709    2.6840794 
   95200    1.0063183   -5.3526688            0   -3.8442915    2.5076895 
   95300   0.98372348    -5.329738            0   -3.8552283    2.6695083 
   95400      1.01729   -5.3870461            0   -3.8622233    2.3522776 
   95500   0.97447259   -5.3246314            0   -3.8639879    2.6576847 
   95600   0.98701717   -5.3410665            0   -3.8616198    2.5562886 
   95700   0.98871149   -5.3371205            0   -3.8551343     2.604711 
   95800   0.98525852   -5.3177114            0   -3.8409008    2.6578987 
   95900   0.98847127   -5.3098051            0   -3.8281788    2.7057015 
   96000    1.0092765   -5.3310104            0    -3.818199     2.662957 
   96100    1.0130508   -5.3302331            0   -3.8117645    2.6451753 
   96200    1.0113541   -5.3312113            0   -3.8152859      2.58114 
   96300    1.0135676   -5.3505889            0   -3.8313457    2.5069758 
   96400    1.0006885   -5.3482516            0   -3.8483129    2.4944698 
   96500    0.9786739   -5.3341643            0   -3.8672235    2.5580684 
   96600    1.0033358   -5.3816738            0    -3.877767    2.3333469 
   96700   0.97001003   -5.3304053            0   -3.8764507    2.5817841 
   96800   0.99935993   -5.3612586            0   -3.8633113    2.4798678 
   96900    1.0036253   -5.3463366            0   -3.8419959    2.5901018 
   97000    1.0059002   -5.3323765            0    -3.824626    2.6574939 
   97100    1.0209393   -5.3371875            0   -3.8068948     2.625714 
   97200   0.99778724   -5.2952105            0   -3.7996205    2.8343674 
   97300   0.99401421   -5.2932252            0   -3.8032906    2.7401271 
   97400    1.0064065    -5.323941            0   -3.8154316    2.6296017 
   97500   0.98638288   -5.3135742            0   -3.8350783    2.6669329 
   97600   0.99916308   -5.3474028            0   -3.8497506    2.5570099 
   97700   0.97473122   -5.3276534            0   -3.8666222      2.63576 
   97800    1.0043292   -5.3816794            0   -3.8762836    2.3610382 
   97900   0.96631128   -5.3269865            0    -3.878576     2.569691 
   98000   0.99813563   -5.3645786            0   -3.8684664    2.4709927 
Loop time of 6.83992 on 2 procs for 8000 steps with 1372 atoms

Pair  time (%) = 5.09242 (74.4514)
Neigh time (%) = 0.682448 (9.97742)
Comm  time (%) = 0.858431 (12.5503)
Outpt time (%) = 0.00273502 (0.0399861)
Other time (%) = 0.203889 (2.98087)

Nlocal:    686 ave 687 max 685 min
Histogram: 1 0 0 0 0 0 0 0 0 1
Nghost:    2252 ave 2265 max 2239 min
Histogram: 1 0 0 0 0 0 0 0 0 1
Neighs:    25819.5 ave 25894 max 25745 min
Histogram: 1 0 0 0 0 0 0 0 0 1

Total # of neighbors = 51639
Ave neighs/atom = 37.6378
Neighbor list builds = 400
Dangerous builds = 0

jump in-minimise.lj loop

variable a loop 100
run		100
Memory usage per processor = 3.12383 Mbytes
Step Temp E_pair E_mol TotEng Press 
   98000   0.99813563   -5.3645786            0   -3.8684664    2.4709927 
   98100     1.007042   -5.3511233            0   -3.8416613    2.5256136 
Loop time of 0.075002 on 2 procs for 100 steps with 1372 atoms

Pair  time (%) = 0.0580158 (77.3524)
Neigh time (%) = 0.00735819 (9.81067)
Comm  time (%) = 0.00728536 (9.71356)
Outpt time (%) = 2.36034e-05 (0.0314704)
Other time (%) = 0.00231898 (3.09189)

Nlocal:    686 ave 687 max 685 min
Histogram: 1 0 0 0 0 0 0 0 0 1
Nghost:    2234.5 ave 2242 max 2227 min
Histogram: 1 0 0 0 0 0 0 0 0 1
Neighs:    25856 ave 25975 max 25737 min
Histogram: 1 0 0 0 0 0 0 0 0 1

Total # of neighbors = 51712
Ave neighs/atom = 37.691
Neighbor list builds = 5
Dangerous builds = 0
minimize 1.0e-4 1.0e-6 100 1000
WARNING: Resetting reneighboring criteria during minimization (../min.cpp:168)
Neighbor list info ...
  1 neighbor list requests
  update every 1 steps, delay 0 steps, check yes
  master list distance cutoff = 2.8
Memory usage per processor = 4.74883 Mbytes
Step Temp E_pair E_mol TotEng Press 
   98100     1.007042   -5.3511233            0   -3.8416613    2.5256136 
   98200     1.007042   -6.7181184            0   -5.2086564   -2.2544703 
Loop time of 0.225765 on 2 procs for 100 steps with 1372 atoms

Minimization stats:
  Stopping criterion = max iterations
  Energy initial, next-to-last, final = 
        -5.35112330999     -6.71601885535     -6.71811837179
  Force two-norm initial, final = 1129.02 27.5738
  Force max component initial, final = 94.0579 3.8854
  Final line search alpha, max atom move = 0.0119638 0.046484
  Iterations, force evaluations = 100 194

Pair  time (%) = 0.143118 (63.3922)
Neigh time (%) = 0.0532224 (23.5742)
Comm  time (%) = 0.0230528 (10.211)
Outpt time (%) = 3.03984e-05 (0.0134646)
Other time (%) = 0.00634205 (2.80913)

Nlocal:    686 ave 705 max 667 min
Histogram: 1 0 0 0 0 0 0 0 0 1
Nghost:    2241.5 ave 2263 max 2220 min
Histogram: 1 0 0 0 0 0 0 0 0 1
Neighs:    25849.5 ave 27336 max 24363 min
Histogram: 1 0 0 0 0 0 0 0 0 1

Total # of neighbors = 51699
Ave neighs/atom = 37.6815
Neighbor list builds = 36
Dangerous builds = 0
next  a
variable myt equal ${a}*10000
variable myt equal 10*10000
reset_timestep ${myt}
reset_timestep 100000
velocity all scale 1
run 8000
Neighbor list info ...
  1 neighbor list requests
  update every 20 steps, delay 0 steps, check no
  master list distance cutoff = 2.8
Memory usage per processor = 3.12383 Mbytes
Step Temp E_pair E_mol TotEng Press 
  100000            1   -6.7181184            0   -5.2192117   -2.2604108 
  100100   0.53093792   -5.9502454            0   -5.1544189   0.22538118 
  100200   0.54850319   -5.8900848            0   -5.0679297  0.037036049 
  100300   0.59294615   -5.8510057            0   -4.9622347  0.019722622 
  100400   0.64088428   -5.8032431            0   -4.8426174   0.16257963 
  100500    0.6589141   -5.7015924            0   -4.7139416    0.5870732 
  100600    0.7039552   -5.6327353            0   -4.5775721   0.95853387 
  100700    0.7665856   -5.5857088            0   -4.4366685    1.2191964 
  100800   0.85335892    -5.571846            0   -4.2927405    1.3799435 
  100900   0.87239911   -5.4589025            0   -4.1512576    1.9219172 
  101000   0.95097852    -5.440857            0    -4.015429    2.0279551 
[...]
  173100    0.9787949   -5.3673103            0   -3.9001881    2.4275956 
  173200   0.94748693   -5.3326119            0   -3.9124174    2.5362748 
  173300   0.97300155   -5.3544465            0    -3.896008    2.4805572 
  173400   0.96843873    -5.313607            0   -3.8620077     2.660801 
  173500    1.0119075   -5.3344318            0   -3.8176768    2.5633837 
  173600    1.0159978   -5.3039578            0   -3.7810718    2.7401256 
  173700    1.0138991     -5.27907            0   -3.7593299    2.8928261 
  173800    1.0321829   -5.3054716            0   -3.7583257    2.7376222 
  173900    1.0210385   -5.3157198            0   -3.7852784    2.6903883 
  174000    1.0147838   -5.3464837            0   -3.8254175    2.6012172 
  174100    0.9801069   -5.3409429            0   -3.8718541    2.5738676 
  174200   0.97063117   -5.3613514            0   -3.9064659    2.4338156 
  174300   0.97403266   -5.3781774            0   -3.9181933    2.3835454 
  174400   0.98225922   -5.3812942            0   -3.9089793    2.4096653 
  174500   0.95561138   -5.3142158            0   -3.8818435    2.6846059 
  174600   0.98082313   -5.3103716            0   -3.8402092    2.6959463 
  174700    1.0287891   -5.3362454            0   -3.7941866    2.7073818 
  174800    1.0440679   -5.3288381            0   -3.7638777    2.6370642 
  174900    1.0480188   -5.3276299            0   -3.7567475     2.708933 
  175000    1.0221295   -5.3050614            0   -3.7729846    2.7517244 
  175100    1.0164774    -5.332617            0   -3.8090122    2.6662166 
  175200   0.98818269   -5.3306217            0    -3.849428    2.6619346 
  175300   0.97192619   -5.3437929            0   -3.8869662    2.5132207 
  175400   0.96368571   -5.3541838            0   -3.9097088    2.4998673 
  175500   0.97326742   -5.3689928            0   -3.9101557    2.3669207 
  175600   0.99331103   -5.3759267            0   -3.8870462    2.3758759 
  175700   0.98616226   -5.3318322            0   -3.8536669    2.6389647 
  175800    1.0300147   -5.3619042            0   -3.8180082    2.4801759 
  175900    1.0134166   -5.3099639            0    -3.790947     2.724695 
  176000    1.0077095   -5.2891517            0   -3.7786892    2.8265762 
  176100    1.0401427   -5.3521042            0   -3.7930274    2.5832739 
  176200   0.99503704   -5.3101073            0   -3.8186396    2.7686849 
  176300   0.97227495   -5.3002019            0   -3.8428525    2.7644027 
  176400   0.96607647   -5.3097398            0   -3.8616813    2.6657726 
  176500   0.99842324    -5.365344            0   -3.8688007      2.42825 
  176600   0.99469473    -5.362267            0   -3.8713124    2.5317851 
  176700   0.99290512   -5.3525869            0   -3.8643147     2.476304 
  176800   0.98971942   -5.3286544            0   -3.8451573    2.5608086 
  176900    1.0130606   -5.3396606            0   -3.8211772    2.5888821 
  177000    1.0127556   -5.3206894            0   -3.8026632    2.6448908 
  177100    1.0237582   -5.3300394            0   -3.7955213    2.6484219 
  177200    1.0073318   -5.3145001            0   -3.8046037    2.6752601 
  177300    1.0076202    -5.339174            0   -3.8288453    2.6296693 
  177400   0.97708529   -5.3229601            0   -3.8584004    2.6138634 
  177500   0.97810991    -5.349166            0   -3.8830705    2.5078683 
  177600   0.98294005   -5.3710918            0   -3.8977564    2.4752151 
  177700   0.96104789   -5.3411936            0   -3.9006725    2.5263171 
  177800   0.97804669   -5.3479364            0   -3.8819357    2.5271423 
  177900   0.99726177    -5.343294            0   -3.8484916    2.5278973 
  178000    1.0209877   -5.3491783            0    -3.818813    2.5046833 
Loop time of 5.59801 on 2 procs for 8000 steps with 1372 atoms

Pair  time (%) = 4.36409 (77.9579)
Neigh time (%) = 0.589171 (10.5246)
Comm  time (%) = 0.48395 (8.64504)
Outpt time (%) = 0.00194502 (0.0347448)
Other time (%) = 0.158852 (2.83765)

Nlocal:    686 ave 690 max 682 min
Histogram: 1 0 0 0 0 0 0 0 0 1
Nghost:    2255 ave 2264 max 2246 min
Histogram: 1 0 0 0 0 0 0 0 0 1
Neighs:    25839 ave 25944 max 25734 min
Histogram: 1 0 0 0 0 0 0 0 0 1

Total # of neighbors = 51678
Ave neighs/atom = 37.6662
Neighbor list builds = 400
Dangerous builds = 0

jump in-minimise.lj loop

variable a loop 100
run		100
Memory usage per processor = 3.12386 Mbytes
Step Temp E_pair E_mol TotEng Press 
  178000    1.0209877   -5.3491783            0    -3.818813    2.5046833 
  178100    1.0177255   -5.3314013            0   -3.8059257    2.6010121 
Loop time of 0.074759 on 2 procs for 100 steps with 1372 atoms

Pair  time (%) = 0.0571262 (76.4138)
Neigh time (%) = 0.00743115 (9.94014)
Comm  time (%) = 0.00763488 (10.2127)
Outpt time (%) = 3.14713e-05 (0.0420969)
Other time (%) = 0.00253534 (3.39135)

Nlocal:    686 ave 688 max 684 min
Histogram: 1 0 0 0 0 0 0 0 0 1
Nghost:    2235 ave 2243 max 2227 min
Histogram: 1 0 0 0 0 0 0 0 0 1
Neighs:    25814 ave 25846 max 25782 min
Histogram: 1 0 0 0 0 0 0 0 0 1

Total # of neighbors = 51628
Ave neighs/atom = 37.6297
Neighbor list builds = 5
Dangerous builds = 0
minimize 1.0e-4 1.0e-6 100 1000
WARNING: Resetting reneighboring criteria during minimization (../min.cpp:168)
Neighbor list info ...
  1 neighbor list requests
  update every 1 steps, delay 0 steps, check yes
  master list distance cutoff = 2.8
Memory usage per processor = 4.74886 Mbytes
Step Temp E_pair E_mol TotEng Press 
  178100    1.0177255   -5.3314013            0   -3.8059257    2.6010121 
  178200    1.0177255   -6.7171227            0   -5.1916471   -2.0903599 
Loop time of 0.213146 on 2 procs for 100 steps with 1372 atoms

Minimization stats:
  Stopping criterion = max iterations
  Energy initial, next-to-last, final = 
        -5.33140131881      -6.7157063609     -6.71712271861
  Force two-norm initial, final = 1172.34 22.9751
  Force max component initial, final = 129.757 4.26032
  Final line search alpha, max atom move = 0.0114632 0.0488368
  Iterations, force evaluations = 100 185

Pair  time (%) = 0.134819 (63.2521)
Neigh time (%) = 0.0554813 (26.0297)
Comm  time (%) = 0.0173177 (8.12479)
Outpt time (%) = 2.49147e-05 (0.0116891)
Other time (%) = 0.00550282 (2.58171)

Nlocal:    686 ave 711 max 661 min
Histogram: 1 0 0 0 0 0 0 0 0 1
Nghost:    2272.5 ave 2308 max 2237 min
Histogram: 1 0 0 0 0 0 0 0 0 1
Neighs:    26046.5 ave 27966 max 24127 min
Histogram: 1 0 0 0 0 0 0 0 0 1

Total # of neighbors = 52093
Ave neighs/atom = 37.9687
Neighbor list builds = 38
Dangerous builds = 0
next  a
variable myt equal ${a}*10000
variable myt equal 18*10000
reset_timestep ${myt}
reset_timestep 180000
velocity all scale 1
run 8000
Neighbor list info ...
  1 neighbor list requests
  update every 20 steps, delay 0 steps, check no
  master list distance cutoff = 2.8
Memory usage per processor = 3.12386 Mbytes
Step Temp E_pair E_mol TotEng Press 
  180000            1   -6.7171227            0    -5.218216   -2.1053129 
  180100   0.54222289   -5.9777626            0    -5.165021   0.20912141 
  180200    0.5450408   -5.8980018            0   -5.0810365 -0.037806058 
  180300   0.56693515   -5.8262917            0   -4.9765088  0.075036093 
  180400    0.6219555   -5.7933777            0   -4.8611245   0.19035639 
  180500   0.67267588    -5.741593            0   -4.7333146   0.45630566 
  180600   0.71684328   -5.6727649            0   -4.5982837    0.7272401 
  180700   0.76714615   -5.6070217            0   -4.4571412    1.1124333 
  180800   0.82534865   -5.5496949            0   -4.3125743    1.3902652 
  180900   0.87254969   -5.4764282            0   -4.1685576    1.8201828 
  181000   0.93497035   -5.4323241            0   -4.0308908    2.0840617 
  181100   0.96752054   -5.3581149            0   -3.9078918    2.4787222 
  181200    1.0276524   -5.3445505            0   -3.8041954    2.5460025 
  181300    1.0492336   -5.3022322            0   -3.7295289    2.8108061 
  181400     1.059993   -5.2829515            0    -3.694121    2.9165592 
  181500    1.0324007   -5.2446079            0   -3.6971356    3.0797673 
  181600    1.0499831   -5.3186459            0   -3.7448191    2.7648855 
  181700    1.0018978   -5.3181222            0   -3.8163708    2.6559866 
  181800   0.99776592    -5.378004            0    -3.882446    2.4293944 
  181900   0.96257601   -5.3742168            0   -3.9314052     2.428881 
  182000   0.95453709   -5.3861161            0   -3.9553541     2.279647 
  182100   0.95116492   -5.3721708            0   -3.9464633    2.3689379 
  182200    0.9927101   -5.3952661            0   -3.9072862    2.3410934 
  182300   0.99473284   -5.3434117            0      -3.8524    2.5225311 
  182400    1.0168445   -5.3247502            0   -3.8005951    2.6639947 
  182500     1.009021   -5.2750952            0   -3.7626669    2.8545574 
  182600    1.0339066   -5.2918263            0   -3.7420967    2.7784681 
  182700    1.0450609   -5.3140938            0   -3.7476451    2.7351511 
  182800    1.0202553   -5.3089566            0    -3.779689    2.7612709 
  182900    1.0011762   -5.3244968            0    -3.823827    2.6839884 
  183000   0.96626329   -5.3179638            0   -3.8696253    2.6261251 
  183100   0.98771005   -5.3834346            0   -3.9029494    2.3545466 
  183200   0.97047933   -5.3748569            0   -3.9201989    2.4188494 
  183300    0.9900827   -5.3972611            0   -3.9132195    2.2877519 
  183400   0.97544312   -5.3511108            0   -3.8890125    2.4744272 
  183500   0.99739048   -5.3469319            0   -3.8519367    2.6012351 
  183600    1.0231028   -5.3433175            0   -3.8097819    2.6431881 
  183700    1.0323463   -5.3311016            0   -3.7837108    2.6571572 
  183800    1.0342841   -5.3292961            0   -3.7790007     2.596906 
  183900    1.0042548   -5.2984528            0   -3.7931685    2.7674196 
  184000    1.0191296   -5.3506146            0   -3.8230345    2.5848848 
  184100   0.96954324    -5.304415            0   -3.8511602    2.7559091 
  184200   0.99416124    -5.359835            0   -3.8696801    2.5161448 
  184300   0.98314876   -5.3562859            0   -3.8826376    2.4569768 
  184400    1.0025423   -5.3881068            0   -3.8853895    2.3277614 
  184500   0.98828737   -5.3638419            0   -3.8824913    2.5041631 
  184600   0.98759271   -5.3458667            0   -3.8655574    2.5613203 
  184700    1.0319525   -5.3877208            0   -3.8409202    2.3874581 
  184800     1.007519   -5.3305825            0   -3.8204055    2.6182795 
  184900     1.011405   -5.3251607            0    -3.809159    2.6849613 
  185000    1.0047854   -5.3177833            0   -3.8117037    2.6559561 
  185100    1.0078406   -5.3352633            0   -3.8246043    2.6193715 
  185200   0.99597523    -5.330832            0    -3.837958    2.5767937 
  185300   0.97662181   -5.3166938            0   -3.8528288    2.6989174 
  185400    1.0101923    -5.373613            0    -3.859429      2.39619 
  185500   0.99598724   -5.3447578            0   -3.8518659    2.5559129 
  185600    1.0006192   -5.3367361            0   -3.8369013    2.5538828 
  185700   0.99732196   -5.3222369            0   -3.8273443    2.6114675 
  185800    1.0109802   -5.3386596            0   -3.8232946    2.5625625 
  185900    1.0189134    -5.350218            0   -3.8229618    2.5883777 
  186000   0.99739946   -5.3261579            0   -3.8311491     2.614775 
  186100     0.984194   -5.3171508            0   -3.8419358    2.6765215 
  186200   0.98968804   -5.3328229            0   -3.8493729    2.6338039 
  186300    0.9883511   -5.3354843            0   -3.8540383    2.5699621 
  186400     1.005764   -5.3633259            0   -3.8557795    2.4508891 
  186500   0.98695699    -5.332822            0   -3.8534656      2.58412 
  186600   0.99990647   -5.3463536            0   -3.8475871    2.5290703 
  186700   0.98408683   -5.3123018            0   -3.8372475    2.6973519 
  186800    1.0102932   -5.3418868            0   -3.8275515     2.510703 
  186900   0.99449589   -5.3174508            0   -3.8267942    2.6864011 
  187000   0.98987574   -5.3125642            0   -3.8288328    2.6651241 
  187100   0.98592962    -5.308041            0   -3.8302245    2.6758335 
  187200    1.0202363   -5.3593228            0   -3.8300838    2.5165893 
  187300    1.0095068    -5.347341            0   -3.8341844    2.5159846 
  187400   0.97739281   -5.3097296            0   -3.8447089    2.6885537 
  187500   0.99581216   -5.3485216            0   -3.8558921    2.5246216 
  187600   0.99341965    -5.355927            0   -3.8668837     2.491426 
  187700   0.99234474   -5.3588638            0   -3.8714316    2.4720768 
  187800    1.0021859   -5.3728031            0     -3.87062    2.4385538 
  187900   0.99833303   -5.3554956            0   -3.8590875    2.5230619 
  188000    1.0119204   -5.3576492            0   -3.8408749    2.5033731 
Loop time of 5.73409 on 2 procs for 8000 steps with 1372 atoms

Pair  time (%) = 4.46851 (77.9289)
Neigh time (%) = 0.601734 (10.494)
Comm  time (%) = 0.497341 (8.67341)
Outpt time (%) = 0.00209141 (0.0364732)
Other time (%) = 0.164409 (2.86722)

Nlocal:    686 ave 690 max 682 min
Histogram: 1 0 0 0 0 0 0 0 0 1
Nghost:    2224.5 ave 2227 max 2222 min
Histogram: 1 0 0 0 0 0 0 0 0 1
Neighs:    25860.5 ave 25910 max 25811 min
Histogram: 1 0 0 0 0 0 0 0 0 1

Total # of neighbors = 51721
Ave neighs/atom = 37.6975
Neighbor list builds = 400
Dangerous builds = 0

jump in-minimise.lj loop

variable a loop 100
run		100
Memory usage per processor = 3.12386 Mbytes
Step Temp E_pair E_mol TotEng Press 
  188000    1.0119204   -5.3576492            0   -3.8408749    2.5033731 
  188100   0.99646356   -5.3111245            0   -3.8175185    2.7033133 
Loop time of 0.0639575 on 2 procs for 100 steps with 1372 atoms

Pair  time (%) = 0.0503973 (78.7981)
Neigh time (%) = 0.00696766 (10.8942)
Comm  time (%) = 0.00475299 (7.43149)
Outpt time (%) = 2.28882e-05 (0.0357866)
Other time (%) = 0.00181663 (2.84037)

Nlocal:    686 ave 693 max 679 min
Histogram: 1 0 0 0 0 0 0 0 0 1
Nghost:    2206 ave 2212 max 2200 min
Histogram: 1 0 0 0 0 0 0 0 0 1
Neighs:    25825.5 ave 26013 max 25638 min
Histogram: 1 0 0 0 0 0 0 0 0 1

Total # of neighbors = 51651
Ave neighs/atom = 37.6465
Neighbor list builds = 5
Dangerous builds = 0
minimize 1.0e-4 1.0e-6 100 1000
WARNING: Resetting reneighboring criteria during minimization (../min.cpp:168)
Neighbor list info ...
  1 neighbor list requests
  update every 1 steps, delay 0 steps, check yes
  master list distance cutoff = 2.8
Memory usage per processor = 4.74886 Mbytes
Step Temp E_pair E_mol TotEng Press 
  188100   0.99646356   -5.3111245            0   -3.8175185    2.7033133 
  188200   0.99646356   -6.6570565            0   -5.1634506    -2.493766 
Loop time of 0.192161 on 2 procs for 100 steps with 1372 atoms

Minimization stats:
  Stopping criterion = max iterations
  Energy initial, next-to-last, final = 
        -5.31112445587      -6.6554823248     -6.65705650067
  Force two-norm initial, final = 1179.51 24.2461
  Force max component initial, final = 119.536 6.31438
  Final line search alpha, max atom move = 0.0128253 0.0809838
  Iterations, force evaluations = 100 188

Pair  time (%) = 0.124648 (64.8663)
Neigh time (%) = 0.0514804 (26.7902)
Comm  time (%) = 0.0112548 (5.85695)
Outpt time (%) = 2.5034e-05 (0.0130276)
Other time (%) = 0.00475311 (2.4735)

Nlocal:    686 ave 692 max 680 min
Histogram: 1 0 0 0 0 0 0 0 0 1
Nghost:    2185 ave 2187 max 2183 min
Histogram: 1 0 0 0 0 0 0 0 0 1
Neighs:    25595.5 ave 26150 max 25041 min
Histogram: 1 0 0 0 0 0 0 0 0 1

Total # of neighbors = 51191
Ave neighs/atom = 37.3112
Neighbor list builds = 36
Dangerous builds = 0
next  a
variable myt equal ${a}*10000
variable myt equal 19*10000
reset_timestep ${myt}
reset_timestep 190000
velocity all scale 1
run 8000
Neighbor list info ...
  1 neighbor list requests
  update every 20 steps, delay 0 steps, check no
  master list distance cutoff = 2.8
Memory usage per processor = 3.12386 Mbytes
Step Temp E_pair E_mol TotEng Press 
  190000            1   -6.6570565            0   -5.1581498   -2.4907827 
  190100   0.54128849   -5.9086243            0   -5.0972834 -0.020170541 
  190200   0.56414274   -5.8568474            0     -5.01125 -0.00022273873 
  190300   0.57796432   -5.7726517            0   -4.9063371   0.34225451 
  190400   0.63819874   -5.7446081            0   -4.7880077   0.36798652 
  190500   0.68916069   -5.6928471            0   -4.6598596   0.62338356 
  190600    0.7355249    -5.626364            0   -4.5238808    1.0173532 
  190700   0.79110488   -5.5680319            0   -4.3822395    1.3774318 
  190800   0.83597134   -5.4943902            0   -4.2413472    1.7384912 
  190900   0.90171742   -5.4553957            0   -4.1038054    1.8772531 
  191000   0.93238842   -5.3700359            0   -3.9724726    2.3857584 
  191100    1.0007491   -5.3573868            0   -3.8573573     2.519466 
  191200    1.0643445   -5.3637836            0   -3.7684304    2.4946074 
  191300     1.034612   -5.2748457            0   -3.7240588    2.9069782 
  191400    1.0578736   -5.3066713            0   -3.7210174    2.7815734 
  191500      1.03238   -5.3036251            0   -3.7561838    2.7350404 
  191600    1.0353021   -5.3620518            0   -3.8102306    2.4786798 
  191700   0.97087123   -5.3213903            0   -3.8661449     2.659622 
  191800   0.97964391    -5.381734            0   -3.9133392     2.358855 
  191900   0.96954071   -5.3923766            0   -3.9391255    2.3238587 
  192000    0.9593855   -5.3796913            0    -3.941662    2.3281965 
  192100   0.94711301   -5.3333848            0   -3.9137507    2.5580971 
  192200    0.9909577   -5.3502557            0   -3.8649026    2.4260146 
  192300    1.0135551   -5.3297789            0   -3.8105544    2.6775887 
  192400    1.0225705   -5.3032554            0   -3.7705176    2.7338771 
  192500    1.0239351   -5.2895023            0   -3.7547191    2.8791617 
  192600     1.025053   -5.3062701            0   -3.7698113    2.6880475 
  192700    1.0217091   -5.3382001            0   -3.8067535    2.5607675 
  192800   0.98646772   -5.3310759            0   -3.8524528     2.590396 
  192900   0.96298806   -5.3391937            0   -3.8957644    2.4895235 
  193000   0.96733399   -5.3752503            0   -3.9253069    2.3562684 
  193100   0.96660934   -5.3807247            0   -3.9318675    2.4291638 
  193200   0.97222771   -5.3694837            0    -3.912205    2.4671838 
  193300   0.99027346   -5.3590597            0   -3.8747322    2.4867738 
  193400    1.0119333   -5.3453627            0   -3.8285691    2.5619281 
  193500    1.0222179   -5.3220866            0   -3.7898773    2.5988187 
  193600    1.0499264   -5.3383453            0   -3.7646035    2.5936183 
  193700    1.0711607   -5.3702392            0   -3.7646692    2.4591747 
  193800    1.0156508   -5.3183724            0   -3.7960067    2.6601534 
  193900    1.0022355   -5.3386126            0   -3.8363551    2.5763633 
  194000   0.99768071   -5.3705243            0    -3.875094    2.3803626 
  194100   0.98420802   -5.3755349            0   -3.9002989    2.3914517 
  194200   0.99022092   -5.3892598            0   -3.9050111    2.3855511 
  194300   0.95366312   -5.3217815            0   -3.8923294    2.6146134 
  194400   0.99048731   -5.3479332            0   -3.8632851    2.5061564 
  194500    1.0091186      -5.3417            0   -3.8291253    2.5854301 
  194600    1.0126014   -5.3159511            0   -3.7981561    2.6807726 
  194700    1.0271709   -5.3170269            0   -3.7773936    2.7169817 
  194800    1.0184262   -5.3056165            0   -3.7790907    2.7512149 
  194900    1.0120047   -5.3185239            0   -3.8016233   