ITEM: TIMESTEP
20000
ITEM: NUMBER OF ATOMS
1372
ITEM: BOX BOUNDS pp pp pp
0 11.7572
0 11.7572
0 11.7572
ITEM: ATOMS id type xs ys zs
1179 1 0.0879806 0.0646715 0.0149057
35 1 0.111421 0.114145 0.0981408
8 1 0.0780362 0.0245699 0.102454
7 1 0.171941 0.0321027 0.110444
1183 1 0.231009 0.0286183 0.035209
1184 1 0.198131 0.117098 0.0599063
12 1 0.261698 0.0697069 0.120006
9 1 0.319383 0.0185298 0.0668857
1188 1 0.286883 0.10216 0.020939
11 1 0.39439 0.0527134 0.113759
1187 1 0.379838 0.0711183 0.0187801
15 1 0.460329 0.0295816 0.0493814
210 1 0.4796 0.0878449 0.122977
17 1 0.52594 0.103963 0.0395949
18 1 0.549605 0.0284372 0.0873405
19 1 0.618319 0.0800983 0.0498198
47 1 0.569245 0.117738 0.121998
1223 1 0.707344 0.0448411 0.076989
221 1 0.812608 0.0475837 0.0407776
222 1 0.859557 0.124721 0.0801769
3 1 0.997767 0.0423215 0.0171321
4 1 0.948207 0.115233 0.107218
27 1 0.909546 0.0601811 0.0386834
223 1 0.879811 0.0305206 0.120593
366 1 0.985398 0.0319485 0.108451
2 1 0.0274264 0.125789 0.0588208
30 1 0.00572622 0.207095 0.0125134
36 1 0.0881429 0.206229 0.0626032
230 1 0.163976 0.192448 0.115793
1212 1 0.188228 0.218756 0.0320208
33 1 0.127637 0.147943 0.000516507
10 1 0.340393 0.129566 0.0930189
37 1 0.254043 0.163667 0.118481
34 1 0.283774 0.199598 0.0394192
1192 1 0.360253 0.161859 0.00163581
16 1 0.437994 0.139616 0.0530222
38 1 0.377349 0.216304 0.0725804
41 1 0.462306 0.24307 0.0479324
45 1 0.596951 0.165318 0.0123369
20 1 0.537392 0.195526 0.076484
249 1 0.705031 0.129305 0.124081
52 1 0.632804 0.18525 0.101085
79 1 0.725781 0.221267 0.0393257
49 1 0.684422 0.139995 0.0335597
22 1 0.773021 0.140888 0.060377
53 1 0.832798 0.20794 0.0123662
56 1 0.833711 0.213193 0.103175
31 1 0.924146 0.153717 0.0128655
29 1 0.932564 0.205755 0.0893036
58 1 0.0115497 0.36812 0.0449717
1263 1 0.0696767 0.295676 0.0270114
64 1 0.106607 0.369084 0.0766997
226 1 0.0583634 0.276353 0.119184
40 1 0.235513 0.25696 0.106594
61 1 0.14577 0.283066 0.0855893
63 1 0.214136 0.345573 0.066005
62 1 0.299667 0.362111 0.0188989
65 1 0.252871 0.282227 0.0102397
67 1 0.317752 0.290678 0.0780597
72 1 0.400614 0.323133 0.0374774
71 1 0.496288 0.332287 0.030689
291 1 0.449437 0.350984 0.119986
269 1 0.526775 0.287457 0.105523
48 1 0.614385 0.255256 0.0418379
70 1 0.601528 0.34579 0.0707024
84 1 0.690876 0.294381 0.0892954
51 1 0.789846 0.284213 0.0541889
278 1 0.841086 0.365974 0.0528434
277 1 0.75791 0.362251 0.0953951
83 1 0.883705 0.282326 0.0625846
59 1 0.979978 0.282893 0.0622065
82 1 0.92731 0.345705 0.0101414
86 1 0.0425479 0.45394 0.029459
89 1 0.127905 0.465365 0.0580026
285 1 0.174768 0.411986 0.123685
96 1 0.184471 0.413069 0.00993907
68 1 0.359187 0.391452 0.0875519
286 1 0.257481 0.437097 0.0711711
290 1 0.337733 0.477491 0.118596
100 1 0.395493 0.491995 0.0451129
95 1 0.444097 0.411736 0.0460949
99 1 0.525527 0.399162 0.0904774
293 1 0.502067 0.487295 0.120059
102 1 0.612412 0.437726 0.0250046
297 1 0.601708 0.444593 0.120857
103 1 0.685763 0.383604 0.0412132
274 1 0.721741 0.444977 0.113732
107 1 0.772777 0.437997 0.0345519
250 1 0.826886 0.442219 0.109541
87 1 0.98644 0.463086 0.100678
60 1 0.923563 0.394711 0.0919244
88 1 0.89558 0.485893 0.0620408
85 1 0.954242 0.434665 0.0132216
309 1 0.013795 0.603496 0.114003
313 1 0.0562124 0.52521 0.0888006
116 1 0.0109923 0.616241 0.0217646
91 1 0.185531 0.505595 0.116487
310 1 0.137668 0.557877 0.0508262
124 1 0.222097 0.598413 0.045398
119 1 0.21197 0.505727 0.0218004
123 1 0.269712 0.536493 0.0953238
125 1 0.31681 0.530876 0.0110894
321 1 0.391554 0.591541 0.0555265
294 1 0.474519 0.545516 0.0479389
104 1 0.593139 0.541915 0.117772
325 1 0.566093 0.610513 0.0586133
136 1 0.66001 0.593269 0.0551398
329 1 0.726397 0.543576 0.00851209
108 1 0.665953 0.501386 0.0692497
301 1 0.770902 0.519441 0.0842061
302 1 0.821488 0.604889 0.0725801
112 1 0.823861 0.515276 0.00170517
139 1 0.898086 0.576572 0.0253966
115 1 0.979488 0.527061 0.0324655
335 1 0.935926 0.555151 0.110954
145 1 0.10291 0.723342 0.057617
141 1 0.0912252 0.633898 0.0788271
167 1 0.0145649 0.697306 0.0740111
120 1 0.180956 0.675179 0.0784121
143 1 0.14204 0.642585 0.00136088
151 1 0.351571 0.675509 0.0827553
152 1 0.266551 0.714588 0.0756012
149 1 0.311779 0.625584 0.0116577
128 1 0.473411 0.64192 0.0601061
155 1 0.466692 0.728928 0.0963371
154 1 0.473401 0.731001 0.00772427
153 1 0.4033 0.666792 0.000530658
132 1 0.544989 0.701835 0.0543831
326 1 0.634068 0.683288 0.0450597
357 1 0.701101 0.743454 0.0708536
140 1 0.861281 0.697978 0.0963746
163 1 0.775903 0.6876 0.0602333
138 1 0.865876 0.662486 0.00731456
334 1 0.9369 0.643193 0.0778453
362 1 0.931075 0.725712 0.0370016
171 1 0.0307493 0.855416 0.120316
142 1 0.068306 0.80952 0.0501775
1351 1 0.155087 0.839428 0.0270031
146 1 0.185937 0.769225 0.0776413
174 1 0.240505 0.86357 0.0689925
148 1 0.130475 0.834578 0.120712
175 1 0.241654 0.787738 0.00300887
373 1 0.310768 0.795219 0.0657421
1332 1 0.432695 0.825137 0.00644229
346 1 0.390985 0.750826 0.0452628
377 1 0.397299 0.826268 0.0989818
156 1 0.509674 0.806901 0.0573481
185 1 0.595369 0.773385 0.0287975
1363 1 0.577224 0.86248 0.00271872
158 1 0.668579 0.828847 0.022489
354 1 0.637001 0.801662 0.107341
191 1 0.735751 0.829628 0.0902694
358 1 0.752805 0.78171 0.00055301
165 1 0.841006 0.752736 0.0203676
361 1 0.792887 0.761062 0.123034
168 1 0.884112 0.789288 0.0949558
166 1 0.982414 0.787012 0.0827386
193 1 0.917597 0.819528 0.0157059
173 1 0.0989117 0.903273 0.0643643
176 1 0.0235806 0.946549 0.101364
170 1 0.0612997 0.971576 0.012495
1352 1 0.188592 0.94433 0.0461175
179 1 0.344565 0.885923 0.0517512
180 1 0.280232 0.946144 0.0210037
376 1 0.281541 0.940882 0.112604
178 1 0.386286 0.970663 0.0107298
184 1 0.449339 0.907264 0.0549211
374 1 0.382583 0.957592 0.102746
378 1 0.486493 0.970314 0.122378
381 1 0.521559 0.882282 0.114001
164 1 0.614063 0.88932 0.0850782
188 1 0.542828 0.942816 0.0434725
190 1 0.743536 0.881554 0.00351214
187 1 0.632462 0.983324 0.0671168
192 1 0.703283 0.917349 0.0796533
196 1 0.740889 0.979087 0.0118604
186 1 0.654346 0.922725 0.000275614
189 1 0.810721 0.887251 0.0709115
195 1 0.854552 0.966362 0.0535525
392 1 0.772898 0.97605 0.0982523
169 1 0.986335 0.881635 0.0411268
144 1 0.905271 0.889467 0.0901166
172 1 0.945839 0.969707 0.0531369
199 1 0.0219245 0.0634762 0.238843
202 1 0.108789 0.0643966 0.187012
197 1 0.0315344 0.0992658 0.151464
203 1 0.190369 0.0548321 0.232091
6 1 0.184997 0.112906 0.157636
205 1 0.325603 0.00848146 0.160655
402 1 0.286561 0.0444226 0.238158
206 1 0.372727 0.0733629 0.205653
212 1 0.464673 0.0566736 0.226193
211 1 0.542997 0.0435563 0.177997
214 1 0.616955 0.0217124 0.226782
24 1 0.630319 0.0451002 0.136485
245 1 0.635495 0.124786 0.187325
218 1 0.71106 0.05845 0.180666
23 1 0.787924 0.0610615 0.128473
224 1 0.851732 0.0803188 0.195934
393 1 0.94278 0.051547 0.188585
198 1 0.0201377 0.189531 0.130883
229 1 0.102735 0.163275 0.182068
225 1 0.0183519 0.155697 0.227065
255 1 0.047569 0.242864 0.208987
233 1 0.216939 0.21174 0.19192
231 1 0.177578 0.144422 0.245218
208 1 0.264737 0.129605 0.205773
234 1 0.32191 0.220518 0.145521
236 1 0.298288 0.213553 0.241711
39 1 0.414191 0.162646 0.14535
44 1 0.385147 0.23549 0.213558
237 1 0.419533 0.147085 0.238982
238 1 0.47643 0.213929 0.202497
239 1 0.513934 0.130213 0.199544
241 1 0.568938 0.202607 0.171091
246 1 0.663995 0.216005 0.185698
252 1 0.72837 0.153827 0.2159
81 1 0.739903 0.216832 0.129241
55 1 0.796715 0.146503 0.154473
251 1 0.831715 0.165406 0.242516
32 1 0.954987 0.216305 0.198675
200 1 0.888129 0.160942 0.161653
421 1 0.928229 0.130777 0.23914
254 1 0.103603 0.346552 0.166051
253 1 0.0163582 0.361751 0.135037
257 1 0.134659 0.256485 0.177052
260 1 0.194796 0.327009 0.157334
259 1 0.196683 0.289511 0.24307
261 1 0.278519 0.363398 0.129297
457 1 0.275556 0.288638 0.188526
258 1 0.254048 0.374053 0.222967
262 1 0.363178 0.320653 0.153252
458 1 0.339599 0.332302 0.241361
43 1 0.433167 0.260034 0.135208
242 1 0.522157 0.293145 0.198943
266 1 0.573795 0.361346 0.161441
270 1 0.613535 0.280216 0.141045
273 1 0.600541 0.263275 0.240529
275 1 0.652243 0.338972 0.223225
80 1 0.663997 0.374158 0.136006
478 1 0.0785033 0.440687 0.135983
256 1 0.0788582 0.41348 0.22756
288 1 0.162445 0.375977 0.233412
315 1 0.158033 0.464263 0.202959
289 1 0.250159 0.452845 0.163329
264 1 0.337146 0.410197 0.184107
513 1 0.289884 0.461574 0.246264
268 1 0.419243 0.381498 0.216488
292 1 0.42266 0.439849 0.139576
296 1 0.383087 0.492287 0.208627
295 1 0.504142 0.41814 0.188786
272 1 0.616468 0.425629 0.214942
466 1 0.560699 0.494951 0.192777
497 1 0.662204 0.497797 0.170214
280 1 0.710551 0.423856 0.204764
303 1 0.775906 0.492473 0.17475
283 1 0.997486 0.434691 0.189661
306 1 0.913489 0.46954 0.158389
512 1 0.0517474 0.508719 0.243002
506 1 0.0556334 0.598396 0.198607
311 1 0.107317 0.530347 0.164371
316 1 0.208671 0.546638 0.198097
341 1 0.164716 0.59893 0.130485
317 1 0.338346 0.591985 0.129388
319 1 0.300959 0.530153 0.185394
320 1 0.277285 0.611963 0.221747
323 1 0.416891 0.536679 0.129572
324 1 0.390727 0.589104 0.209348
493 1 0.474053 0.530329 0.205993
127 1 0.502387 0.581917 0.129904
300 1 0.568286 0.588252 0.199665
131 1 0.721625 0.570382 0.150456
298 1 0.639613 0.620889 0.145023
299 1 0.659203 0.572966 0.225758
498 1 0.743132 0.539296 0.247371
305 1 0.849205 0.532492 0.128766
135 1 0.807389 0.583111 0.193632
333 1 0.876818 0.621583 0.147208
282 1 0.998507 0.52776 0.170528
308 1 0.905126 0.550189 0.204828
337 1 0.0328762 0.683892 0.163547
312 1 0.12442 0.68732 0.151917
534 1 0.0741838 0.743109 0.247637
339 1 0.107873 0.657078 0.245923
147 1 0.213484 0.721984 0.152235
510 1 0.191741 0.645909 0.207003
314 1 0.254336 0.636628 0.130855
541 1 0.26463 0.706433 0.224905
318 1 0.335175 0.671712 0.175909
348 1 0.346443 0.748976 0.234198
322 1 0.48323 0.626582 0.210626
347 1 0.3943 0.743668 0.151154
349 1 0.422967 0.645805 0.13845
351 1 0.486995 0.714344 0.182875
545 1 0.412092 0.683536 0.224591
328 1 0.563568 0.685939 0.228752
353 1 0.550828 0.661799 0.138259
304 1 0.657012 0.680203 0.221333
327 1 0.721954 0.679683 0.14419
331 1 0.734592 0.630431 0.225785
332 1 0.749306 0.724564 0.232762
355 1 0.632568 0.713072 0.134963
330 1 0.813241 0.684477 0.177228
363 1 0.944014 0.718551 0.137205
530 1 0.959308 0.630162 0.181576
557 1 0.929035 0.711489 0.232062
338 1 0.0662523 0.764091 0.132091
340 1 0.0731839 0.830075 0.197254
344 1 0.145854 0.772224 0.190972
342 1 0.220229 0.819507 0.15061
565 1 0.161635 0.869501 0.208256
345 1 0.301955 0.757749 0.150612
538 1 0.283709 0.816371 0.219081
371 1 0.307595 0.854122 0.135126
350 1 0.47175 0.806895 0.151866
375 1 0.375429 0.830215 0.192833
352 1 0.436453 0.774273 0.23287
160 1 0.552812 0.76189 0.130342
379 1 0.505296 0.874033 0.209357
356 1 0.586557 0.847322 0.171033
546 1 0.53297 0.782687 0.222754
550 1 0.623605 0.767873 0.211965
385 1 0.705576 0.772495 0.163723
382 1 0.678275 0.867783 0.158878
383 1 0.690309 0.825253 0.244974
389 1 0.845652 0.85131 0.154451
360 1 0.776405 0.818581 0.206878
364 1 0.870686 0.766698 0.184011
365 1 0.943136 0.829496 0.155093
558 1 0.999566 0.766523 0.198262
582 1 0.946167 0.823293 0.248396
201 1 0.0434315 0.989 0.186451
367 1 0.00303665 0.896045 0.19927
369 1 0.093466 0.914325 0.157471
5 1 0.18684 0.9143 0.132225
398 1 0.232515 0.993601 0.173626
370 1 0.145094 0.972526 0.209056
207 1 0.348661 0.921919 0.183209
569 1 0.253144 0.902449 0.197457
380 1 0.4342 0.895661 0.151476
209 1 0.419499 0.985309 0.186136
573 1 0.418296 0.897244 0.245841
574 1 0.533792 0.961454 0.220035
213 1 0.582395 0.957991 0.141487
217 1 0.629014 0.924099 0.216818
388 1 0.724531 0.911065 0.232043
386 1 0.688325 0.969001 0.156395
220 1 0.701938 0.998092 0.24944
387 1 0.764848 0.899951 0.150558
219 1 0.777807 0.988283 0.192437
391 1 0.849405 0.9449 0.145052
581 1 0.818341 0.911585 0.227265
417 1 0.872555 0.992512 0.226678
368 1 0.908275 0.898519 0.206012
390 1 0.943073 0.96156 0.149792
562 1 0.966046 0.97264 0.241466
204 1 0.102555 0.0270701 0.274204
394 1 0.0778233 0.118272 0.36361
397 1 0.105271 0.0265104 0.368434
227 1 0.0914785 0.120953 0.270645
603 1 0.0220013 0.0498994 0.331217
427 1 0.162131 0.0884204 0.324689
566 1 0.226796 0.0149961 0.306463
429 1 0.247905 0.108993 0.297656
401 1 0.317897 0.0502277 0.32707
433 1 0.403906 0.0671743 0.295638
435 1 0.474132 0.0439005 0.351989
267 1 0.487637 0.120623 0.294653
406 1 0.536147 0.0279952 0.284044
437 1 0.554283 0.0989052 0.354384
216 1 0.580368 0.104559 0.260547
412 1 0.563244 0.00707597 0.370825
215 1 0.626973 0.0469645 0.319056
247 1 0.682639 0.0907887 0.26336
410 1 0.720592 0.0352406 0.332217
414 1 0.774869 0.0624077 0.250684
443 1 0.80429 0.0654285 0.357621
418 1 0.869474 0.00593595 0.329184
445 1 0.857984 0.0906357 0.288217
396 1 0.940332 0.0496322 0.284301
447 1 0.910293 0.0839873 0.366486
232 1 0.121283 0.215085 0.264046
425 1 0.140708 0.187584 0.352259
455 1 0.217789 0.212204 0.293442
426 1 0.229605 0.160905 0.371067
235 1 0.333464 0.128942 0.273221
432 1 0.305661 0.203201 0.334913
430 1 0.394233 0.15519 0.33785
240 1 0.453613 0.215555 0.293197
434 1 0.54508 0.192316 0.262435
465 1 0.524943 0.191483 0.351144
441 1 0.606134 0.232907 0.334151
243 1 0.639953 0.176294 0.266483
627 1 0.699821 0.19457 0.346389
442 1 0.764858 0.135275 0.306726
473 1 0.791513 0.222855 0.336343
448 1 0.847011 0.151285 0.360016
423 1 0.982488 0.133347 0.317643
446 1 0.909882 0.194899 0.306883
449 1 0.996634 0.22752 0.289784
451 1 0.0695185 0.262425 0.336653
453 1 0.103611 0.305544 0.252663
279 1 0.0200357 0.328972 0.290742
481 1 0.107038 0.374579 0.313305
287 1 0.205164 0.357732 0.317634
454 1 0.159341 0.278467 0.328533
263 1 0.369017 0.26425 0.301516
460 1 0.27432 0.291182 0.295486
265 1 0.44308 0.29886 0.251487
459 1 0.442782 0.300494 0.346499
489 1 0.481423 0.372878 0.29771
491 1 0.388207 0.366763 0.311765
271 1 0.56496 0.353891 0.256
244 1 0.525184 0.278543 0.298704
626 1 0.556447 0.353655 0.352678
248 1 0.688591 0.255156 0.274686
467 1 0.63357 0.318562 0.316172
228 1 0.924484 0.297302 0.305081
471 1 0.966365 0.369771 0.355207
450 1 0.0685852 0.43594 0.373469
479 1 0.114398 0.467034 0.294444
474 1 0.0191065 0.426967 0.296532
482 1 0.206886 0.443399 0.282184
483 1 0.163477 0.43408 0.366363
485 1 0.294514 0.389093 0.306671
637 1 0.367041 0.456957 0.294232
492 1 0.274988 0.480958 0.338185
468 1 0.453582 0.455805 0.261531
638 1 0.435827 0.435554 0.357139
495 1 0.543661 0.443038 0.274542
639 1 0.622629 0.409647 0.308534
276 1 0.673285 0.481588 0.270187
751 1 0.645908 0.476362 0.368142
307 1 0.870268 0.472983 0.258347
476 1 0.870716 0.382439 0.34293
501 1 0.788936 0.482084 0.307498
281 1 0.937948 0.39401 0.263908
284 1 0.959846 0.488766 0.252068
502 1 0.928994 0.455853 0.333709
477 1 0.00764107 0.513728 0.328506
533 1 0.0576297 0.594599 0.303682
507 1 0.0920521 0.530393 0.362254
484 1 0.130386 0.56093 0.251524
488 1 0.181065 0.524846 0.32478
511 1 0.145709 0.621271 0.32453
516 1 0.326767 0.545391 0.275022
486 1 0.253108 0.577549 0.352562
515 1 0.358757 0.520582 0.36221
517 1 0.421711 0.540593 0.286522
490 1 0.498798 0.502144 0.3328
496 1 0.591661 0.524101 0.275547
518 1 0.515266 0.577972 0.281552
528 1 0.568908 0.561777 0.358096
519 1 0.602919 0.617846 0.28133
494 1 0.667849 0.560697 0.323011
529 1 0.838248 0.558458 0.278356
531 1 0.842963 0.623888 0.35047
526 1 0.761121 0.593271 0.31978
504 1 0.851663 0.521846 0.366439
505 1 0.984017 0.576268 0.252883
336 1 0.905679 0.624724 0.258737
480 1 0.923497 0.554208 0.317962
559 1 0.0114867 0.666156 0.250577
535 1 0.0625237 0.68535 0.324656
509 1 0.226793 0.659473 0.29637
537 1 0.149551 0.719723 0.307449
649 1 0.235167 0.747521 0.367839
663 1 0.299886 0.718052 0.310002
514 1 0.346084 0.643532 0.27508
543 1 0.395186 0.720445 0.309269
520 1 0.44166 0.633855 0.299422
549 1 0.487809 0.713071 0.278221
665 1 0.464266 0.697594 0.370288
521 1 0.609559 0.708428 0.310081
524 1 0.53823 0.655377 0.334423
523 1 0.688 0.651558 0.304563
556 1 0.69033 0.749354 0.301389
522 1 0.626866 0.633056 0.36965
525 1 0.816859 0.648404 0.263398
359 1 0.839996 0.738115 0.266334
553 1 0.765551 0.695172 0.323495
555 1 0.833455 0.742166 0.361612
532 1 0.899357 0.691594 0.320809
536 1 0.991454 0.744998 0.294932
508 1 0.974154 0.638992 0.330719
585 1 0.0341485 0.826176 0.279176
563 1 0.0778521 0.775762 0.343709
561 1 0.125856 0.816534 0.273166
343 1 0.209519 0.774564 0.261374
539 1 0.166298 0.804995 0.353532
567 1 0.202292 0.871102 0.296743
544 1 0.277183 0.814754 0.30963
664 1 0.340855 0.780469 0.364513
542 1 0.377645 0.819849 0.288958
548 1 0.485359 0.828864 0.287717
761 1 0.438889 0.787884 0.353339
384 1 0.589149 0.847754 0.265183
547 1 0.534011 0.760424 0.345624
578 1 0.700841 0.839924 0.338612
551 1 0.631959 0.78046 0.372079
554 1 0.853687 0.832815 0.260687
683 1 0.838448 0.833098 0.354681
583 1 0.773127 0.792395 0.299523
673 1 0.99242 0.814226 0.36361
560 1 0.909927 0.783657 0.322715
587 1 0.921018 0.873186 0.362449
372 1 0.0815912 0.907646 0.251153
400 1 0.091261 0.875495 0.339782
395 1 0.050105 0.961915 0.322194
568 1 0.145497 0.949329 0.310538
571 1 0.333756 0.875197 0.357587
570 1 0.32161 0.89003 0.265069
572 1 0.302265 0.959402 0.326321
405 1 0.360397 0.986986 0.257968
403 1 0.427396 0.885934 0.340716
407 1 0.455 0.97845 0.278767
408 1 0.393269 0.985599 0.349788
575 1 0.486279 0.953814 0.365508
577 1 0.525494 0.910577 0.29689
409 1 0.605058 0.9598 0.299062
413 1 0.696153 0.937128 0.318254
684 1 0.839895 0.925908 0.368969
584 1 0.777522 0.886593 0.308126
415 1 0.787908 0.977666 0.29104
419 1 0.956513 0.975178 0.341723
588 1 0.888457 0.92307 0.29093
586 1 0.981671 0.898385 0.294383
688 1 0.0139615 0.00192964 0.412267
604 1 0.0769992 0.0807326 0.448845
607 1 0.237549 0.065976 0.385695
428 1 0.15908 0.118253 0.414271
590 1 0.154257 0.0322827 0.445949
676 1 0.245377 0.00567389 0.457548
431 1 0.314141 0.124049 0.383159
594 1 0.338473 0.0901651 0.467536
593 1 0.32619 0.012264 0.413853
404 1 0.392666 0.0729332 0.389789
609 1 0.434054 0.0958425 0.470703
595 1 0.44346 0.000324364 0.433348
797 1 0.380193 0.0114549 0.498072
693 1 0.606722 0.0287299 0.460834
611 1 0.516887 0.0608752 0.435331
439 1 0.744713 0.0500639 0.426668
420 1 0.838595 0.093304 0.441228
601 1 0.837903 0.00355032 0.420284
613 1 0.763204 0.118985 0.494977
701 1 0.993921 0.0993403 0.408184
785 1 0.996534 0.06766 0.497261
713 1 0.918977 0.121109 0.480743
602 1 0.926097 0.0358147 0.443319
422 1 0.023462 0.192172 0.380429
704 1 0.0889672 0.176557 0.447314
592 1 0.249515 0.126604 0.460079
606 1 0.19262 0.202191 0.443299
608 1 0.292287 0.203591 0.432853
623 1 0.366037 0.244336 0.491668
436 1 0.382417 0.167648 0.43523
461 1 0.468352 0.129164 0.390807
463 1 0.444346 0.218034 0.385551
610 1 0.469512 0.192417 0.471311
440 1 0.560822 0.206126 0.436238
444 1 0.76571 0.145449 0.403126
469 1 0.771781 0.241281 0.426786
616 1 0.855099 0.186456 0.446958
475 1 0.875787 0.248509 0.378859
702 1 0.998062 0.169002 0.473739
424 1 0.933889 0.171802 0.397447
617 1 0.935331 0.247458 0.454341
619 1 0.122131 0.257255 0.414628
715 1 0.031333 0.254662 0.450525
456 1 0.0512738 0.341824 0.38641
717 1 0.0909317 0.32145 0.474348
620 1 0.144647 0.346715 0.395105
706 1 0.236957 0.257757 0.378199
849 1 0.199019 0.297463 0.455991
621 1 0.360117 0.254404 0.395292
850 1 0.298157 0.297798 0.455933
622 1 0.380608 0.344983 0.406276
464 1 0.477249 0.36558 0.404403
719 1 0.437268 0.28529 0.447177
724 1 0.474853 0.353774 0.497946
462 1 0.518906 0.278916 0.393673
737 1 0.560989 0.3618 0.450471
612 1 0.609779 0.291176 0.412492
830 1 0.519553 0.272384 0.487058
470 1 0.700141 0.286162 0.379236
438 1 0.686366 0.284634 0.475543
723 1 0.736495 0.355533 0.436379
628 1 0.809902 0.318563 0.387907
629 1 0.847281 0.280102 0.470316
452 1 0.9794 0.27631 0.375494
618 1 0.985357 0.337844 0.45231
630 1 0.902169 0.331688 0.415722
633 1 0.0579225 0.412237 0.463037
632 1 0.0309669 0.499344 0.428527
634 1 0.122626 0.481967 0.438257
731 1 0.150594 0.395653 0.475639
734 1 0.213322 0.498774 0.41082
874 1 0.233849 0.435648 0.48174
487 1 0.250229 0.405876 0.391686
635 1 0.344471 0.42499 0.378473
733 1 0.316084 0.392048 0.462578
636 1 0.30203 0.486359 0.432808
735 1 0.414271 0.416726 0.457344
624 1 0.51036 0.438788 0.474023
738 1 0.612296 0.447669 0.459252
653 1 0.556446 0.44124 0.381416
472 1 0.643205 0.379369 0.398881
640 1 0.70739 0.446142 0.437438
886 1 0.668532 0.378356 0.496227
499 1 0.787187 0.419143 0.382042
642 1 0.795112 0.484123 0.4476
641 1 0.825701 0.377729 0.457999
503 1 0.878085 0.445028 0.414614
631 1 0.972999 0.428146 0.425286
643 1 0.911698 0.39456 0.488251
743 1 0.0698574 0.572591 0.467903
645 1 0.0128606 0.582807 0.391877
732 1 0.158712 0.54865 0.494188
745 1 0.240933 0.585909 0.447013
647 1 0.15991 0.57419 0.404357
878 1 0.334235 0.610622 0.460107
652 1 0.483946 0.600478 0.383507
651 1 0.444508 0.503187 0.495667
749 1 0.488846 0.591073 0.478309
881 1 0.555657 0.522728 0.470699
752 1 0.569824 0.613865 0.440578
527 1 0.733748 0.516122 0.375232
500 1 0.640119 0.553873 0.417765
740 1 0.718306 0.538925 0.46498
655 1 0.712617 0.611066 0.395198
921 1 0.848547 0.624917 0.472692
657 1 0.794773 0.575163 0.41658
742 1 0.87497 0.533501 0.457872
755 1 0.967809 0.566128 0.475845
644 1 0.944769 0.514225 0.400852
671 1 0.915279 0.600795 0.401784
659 1 0.0480367 0.717159 0.409862
646 1 0.0904269 0.635628 0.398974
744 1 0.0605611 0.666786 0.487379
648 1 0.208522 0.656287 0.388546
661 1 0.14131 0.723713 0.400627
746 1 0.21895 0.724189 0.45607
901 1 0.156184 0.644942 0.467459
650 1 0.299515 0.688237 0.407797
748 1 0.348698 0.699945 0.490238
747 1 0.421071 0.648837 0.445171
750 1 0.394294 0.735068 0.418637
763 1 0.506906 0.685352 0.451361
667 1 0.583334 0.703502 0.403857
948 1 0.746029 0.628321 0.482734
669 1 0.690164 0.704019 0.3883
681 1 0.642245 0.744482 0.460704
765 1 0.656908 0.646518 0.460949
768 1 0.736717 0.723581 0.478494
656 1 0.78821 0.673578 0.412585
767 1 0.83047 0.717029 0.489648
672 1 0.961826 0.726215 0.380096
658 1 0.97835 0.657595 0.43964
769 1 0.927487 0.72802 0.489644
770 1 0.884813 0.688211 0.415766
660 1 0.0940873 0.764154 0.475325
674 1 0.0665365 0.835316 0.4191
759 1 0.179142 0.807122 0.445378
662 1 0.252228 0.839047 0.396087
934 1 0.299985 0.773459 0.445939
961 1 0.316351 0.863349 0.463356
677 1 0.394 0.837869 0.416814
764 1 0.470276 0.784723 0.43968
933 1 0.380394 0.791905 0.493616
666 1 0.56148 0.788353 0.435124
552 1 0.512942 0.849718 0.375801
579 1 0.637602 0.84247 0.44957
668 1 0.71405 0.796853 0.422977
670 1 0.807343 0.790276 0.436614
781 1 0.86123 0.869034 0.439713
695 1 0.770685 0.871674 0.403161
758 1 0.996229 0.778331 0.453332
685 1 0.901994 0.787368 0.416362
783 1 0.956283 0.861257 0.448026
772 1 0.0367394 0.908136 0.476255
564 1 0.00923136 0.907047 0.385552
591 1 0.0593149 0.998686 0.492063
687 1 0.0970584 0.945135 0.41318
399 1 0.195465 0.977282 0.384972
762 1 0.217356 0.914754 0.475018
540 1 0.170806 0.88885 0.392884
760 1 0.126839 0.8773 0.478782
678 1 0.37355 0.932022 0.42583
675 1 0.277609 0.930179 0.409127
776 1 0.310402 0.950685 0.49695
679 1 0.461203 0.898462 0.434621
766 1 0.549764 0.877945 0.461385
580 1 0.585874 0.915337 0.381109
576 1 0.532666 0.967487 0.445485
680 1 0.622844 0.936067 0.466743
682 1 0.724257 0.875917 0.485454
411 1 0.656401 0.990565 0.38924
597 1 0.71225 0.970277 0.467077
599 1 0.684933 0.904863 0.404173
416 1 0.757649 0.965386 0.384311
600 1 0.800899 0.933602 0.471128
589 1 0.916369 0.944873 0.423642
699 1 0.968396 0.971333 0.497609
788 1 0.0577085 0.0738151 0.613149
605 1 0.120176 0.0467945 0.543352
954 1 0.00545073 0.00839036 0.575016
690 1 0.0636011 0.124042 0.529776
790 1 0.203959 0.0571 0.602256
689 1 0.205241 0.0670359 0.51243
817 1 0.136811 0.122952 0.596215
691 1 0.294893 0.0409726 0.53291
692 1 0.260284 0.121162 0.5626
798 1 0.479679 0.0615258 0.609525
694 1 0.402435 0.0820477 0.555887
596 1 0.485455 0.0327397 0.519617
696 1 0.566982 0.066955 0.570144
698 1 0.747237 0.033026 0.58794
709 1 0.657616 0.0277637 0.620526
598 1 0.696554 0.0540783 0.510939
710 1 0.637332 0.116485 0.623842
711 1 0.842434 0.102764 0.538203
700 1 0.842077 0.0226789 0.585295
615 1 0.789766 0.0238017 0.503824
810 1 0.923972 0.0554964 0.553715
837 1 0.892232 0.124653 0.614837
814 1 0.0566546 0.219185 0.533116
816 1 0.0559396 0.166422 0.610737
818 1 0.143725 0.237376 0.512466
1017 1 0.197109 0.186442 0.571799
824 1 0.249973 0.236155 0.5117
820 1 0.129945 0.223449 0.623491
703 1 0.152156 0.140297 0.504562
794 1 0.353796 0.140167 0.61187
705 1 0.322651 0.168357 0.516535
822 1 0.372986 0.234225 0.60777
823 1 0.283958 0.204165 0.59866
707 1 0.493968 0.126197 0.540064
825 1 0.460074 0.157267 0.623973
708 1 0.412812 0.177513 0.543275
826 1 0.502431 0.218844 0.565286
625 1 0.578145 0.168599 0.578128
712 1 0.655294 0.218728 0.537992
861 1 0.74147 0.234701 0.583607
834 1 0.728201 0.130341 0.586273
840 1 0.814156 0.176774 0.597106
614 1 0.794384 0.209891 0.512158
813 1 0.973776 0.136405 0.56222
838 1 0.964255 0.229802 0.541676
714 1 0.884558 0.187032 0.538093
841 1 0.0159519 0.30765 0.533135
845 1 0.0914404 0.296635 0.585887
843 1 0.0169986 0.252331 0.612762
866 1 0.0115015 0.353211 0.614538
847 1 0.215523 0.273604 0.593771
718 1 0.162136 0.323446 0.536049
877 1 0.312175 0.289269 0.561829
1069 1 0.251289 0.3528 0.620894
720 1 0.250673 0.347863 0.522524
851 1 0.387649 0.326534 0.611054
853 1 0.43612 0.277455 0.545201
722 1 0.378554 0.337742 0.505622
1053 1 0.596784 0.261754 0.598489
857 1 0.522167 0.312792 0.570549
858 1 0.602772 0.304749 0.513293
860 1 0.678899 0.305021 0.571856
725 1 0.844028 0.269659 0.568309
862 1 0.770691 0.322853 0.603435
728 1 0.840307 0.362462 0.548533
726 1 0.769669 0.306827 0.512833
727 1 0.933705 0.2941 0.612205
716 1 0.919959 0.311167 0.522094
869 1 0.0471996 0.442459 0.605378
870 1 0.116036 0.466394 0.532475
842 1 0.0852877 0.3797 0.546049
730 1 0.0254899 0.491818 0.521981
873 1 0.183818 0.403708 0.569707
876 1 0.148427 0.468154 0.623718
879 1 0.326157 0.384992 0.57211
856 1 0.427462 0.405833 0.559394
880 1 0.417877 0.496294 0.595768
721 1 0.522099 0.40538 0.562166
736 1 0.506762 0.496235 0.563099
885 1 0.612424 0.378439 0.570388
883 1 0.59408 0.469798 0.55174
887 1 0.70452 0.393594 0.58544
917 1 0.731215 0.484467 0.600795
913 1 0.681518 0.473286 0.523959
889 1 0.763817 0.423041 0.517003
739 1 0.824428 0.487727 0.568036
919 1 0.791828 0.413499 0.611581
729 1 0.995001 0.402255 0.531873
893 1 0.923028 0.38357 0.588214
741 1 0.91255 0.469761 0.542161
897 1 0.0168095 0.580142 0.553062
872 1 0.0783115 0.529041 0.597818
904 1 0.10588 0.609011 0.547207
907 1 0.458118 0.575836 0.563198
910 1 0.552463 0.575174 0.549699
754 1 0.716358 0.570609 0.554483
1113 1 0.644275 0.535125 0.60203
654 1 0.63497 0.558817 0.509637
918 1 0.797516 0.571335 0.600451
753 1 0.798956 0.555525 0.50978
890 1 0.888931 0.569147 0.543059
894 1 0.969843 0.513685 0.600531
923 1 0.944571 0.610448 0.60784
898 1 0.0322336 0.655047 0.608055
926 1 0.0189416 0.741462 0.539195
902 1 0.265053 0.659962 0.500216
1098 1 0.369757 0.739781 0.573657
905 1 0.408999 0.655223 0.555307
906 1 0.438403 0.722486 0.50183
940 1 0.46603 0.73034 0.589366
909 1 0.50501 0.659294 0.543642
941 1 0.584968 0.683913 0.504396
939 1 0.59302 0.745102 0.57747
914 1 0.625404 0.628039 0.574828
945 1 0.669556 0.702935 0.542465
920 1 0.712812 0.646556 0.609405
971 1 0.749378 0.730743 0.577573
949 1 0.795842 0.653348 0.556586
946 1 0.843529 0.743038 0.578867
756 1 0.886978 0.665466 0.546786
922 1 0.976409 0.659308 0.532123
930 1 0.240984 0.835516 0.516181
757 1 0.282568 0.751201 0.533494
929 1 0.261337 0.837407 0.624301
936 1 0.326459 0.83274 0.55362
777 1 0.481974 0.841599 0.511769
935 1 0.421159 0.815083 0.57732
937 1 0.522355 0.753778 0.515507
938 1 0.517839 0.810162 0.593504
942 1 0.589363 0.815894 0.52181
944 1 0.605347 0.838357 0.613372
970 1 0.728387 0.854758 0.579522
1138 1 0.675646 0.778874 0.607244
779 1 0.687624 0.797047 0.518534
950 1 0.874595 0.804226 0.506638
782 1 0.783373 0.800772 0.526687
952 1 0.859281 0.836844 0.599384
925 1 0.935179 0.779339 0.574122
771 1 0.0770735 0.93713 0.563012
789 1 0.152923 0.978673 0.606847
774 1 0.143605 0.963983 0.503364
773 1 0.22391 0.981526 0.544232
957 1 0.178442 0.897694 0.560039
793 1 0.335036 0.986055 0.594004
958 1 0.275327 0.911944 0.572811
964 1 0.372256 0.901864 0.592537
775 1 0.398486 0.8856 0.505706
965 1 0.463472 0.894352 0.589615
962 1 0.425694 0.985951 0.575739
778 1 0.479076 0.940496 0.513434
966 1 0.550541 0.892456 0.556104
968 1 0.512542 0.970101 0.601374
780 1 0.567336 0.980405 0.530214
972 1 0.601839 0.94402 0.613884
969 1 0.64771 0.885054 0.543058
802 1 0.659412 0.976202 0.544825
697 1 0.747526 0.945066 0.550705
973 1 0.835634 0.928337 0.574166
686 1 0.875391 0.98526 0.504927
980 1 0.921311 0.96568 0.585711
784 1 0.90614 0.896324 0.519927
978 1 0.950006 0.875497 0.603417
982 1 0.028331 0.0307314 0.697534
1013 1 0.105414 0.0873669 0.746021
1009 1 0.0370898 0.122509 0.692537
786 1 0.134714 0.0587328 0.66427
792 1 0.223942 0.0468739 0.694981
988 1 0.194793 0.12078 0.743272
796 1 0.295876 0.0681709 0.630056
989 1 0.32287 0.0040275 0.692536
992 1 0.349727 0.103131 0.703363
795 1 0.390505 0.0472649 0.641016
800 1 0.448636 0.0954331 0.694702
993 1 0.478517 0.00162019 0.680312
1158 1 0.408234 0.0180812 0.738232
829 1 0.544644 0.114438 0.651702
801 1 0.567707 0.0224423 0.652988
799 1 0.529224 0.05981 0.729314
804 1 0.622569 0.0755152 0.704764
831 1 0.712611 0.094729 0.677792
805 1 0.730709 0.00165105 0.67439
806 1 0.801802 0.0940111 0.636145
835 1 0.791998 0.0551368 0.720236
809 1 0.878259 0.0495376 0.670934
812 1 0.967386 0.0741917 0.64141
1005 1 0.9436 0.0418158 0.742813
1006 1 0.920429 0.124913 0.708767
1037 1 0.0564327 0.213979 0.689002
821 1 0.222118 0.134705 0.650265
815 1 0.12961 0.154085 0.684811
819 1 0.213373 0.224951 0.674393
986 1 0.298469 0.184638 0.692591
1018 1 0.394109 0.184581 0.684842
1022 1 0.45138 0.22587 0.744272
827 1 0.510818 0.155049 0.73041
832 1 0.536002 0.210426 0.655021
1025 1 0.603996 0.167848 0.702653
1023 1 0.547561 0.242673 0.745075
833 1 0.663349 0.20413 0.630734
1026 1 0.685274 0.208232 0.721853